{
    "CAS": "100-18-5",
    "LibraryIndex": "544",
    "CompoundID": "P-diisopropylbenzene",
    "StructureFormula": "(CH3)2CH(C6H4)CH(CH3)2",
    "Family": "17",
    "CriticalTemperature": [
        "675",
        "K"
    ],
    "CriticalPressure": [
        "2360000",
        "Pa"
    ],
    "CriticalVolume": [
        "0.584",
        "m3/kmol"
    ],
    "CriticalCompressibility": [
        "0.256",
        "_"
    ],
    "NormalBoilingPointTemperature": [
        "483.52",
        "K"
    ],
    "NormalMeltingPointTemperature": [
        "256.08",
        "K"
    ],
    "TriplePointTemperature": [
        "256.08",
        "K"
    ],
    "TriplePointPressure": [
        "0.697953",
        "Pa"
    ],
    "MolecularWeight": [
        "162.271",
        "kg/kmol"
    ],
    "LiquidVolumeAtNormalBoilingPoint": [
        "0.190236",
        "m3/kmol"
    ],
    "AcentricityFactor": [
        "0.476415",
        "_"
    ],
    "SolubilityParameter": [
        "16930",
        "J0.5/m1.5"
    ],
    "DipoleMoment": [
        "0",
        "Coulomb.m"
    ],
    "HeatOfFormation": [
        "-7.76E+07",
        "J/kmol"
    ],
    "GibbsEnergyOfFormation": [
        "1.47804E+08",
        "J/kmol"
    ],
    "AbsEntropy": [
        "488000",
        "J/kmol/K"
    ],
    "HeatOfFusionAtMeltingPoint": [
        "0",
        "J/kmol"
    ],
    "HeatOfCombustion": [
        "-6.77E+09",
        "J/kmol"
    ],
    "LiquidDensity": [
        {
            "eqno": "105",
            "A": "0.77801",
            "B": "0.34547",
            "C": "675",
            "D": "0.38736",
            "Tmin": "256.08",
            "Tmax": "666.21"
        },
        "kmol/m3"
    ],
    "VaporPressure": [
        {
            "eqno": "101",
            "A": "121.6259",
            "B": "-10711.76",
            "C": "-14.56272",
            "D": "8.944308E-06",
            "E": "2",
            "Tmin": "256.08",
            "Tmax": "689"
        },
        "Pa"
    ],
    "HeatOfVaporization": [
        {
            "eqno": "106",
            "A": "9.572101E+07",
            "B": "2.166143",
            "C": "-4.616074",
            "D": "4.777254",
            "E": "-1.852374",
            "Tmin": "256.08",
            "Tmax": "666.21"
        },
        "J/kmol"
    ],
    "LiquidHeatCapacityCp": [
        {
            "eqno": "16",
            "A": "-70570",
            "B": "94.476",
            "C": "11.349",
            "D": "0.0048258",
            "E": "-0.0000034771",
            "Tmin": "256.08",
            "Tmax": "483.65"
        },
        "J/kmol/K"
    ],
    "IdealGasHeatCapacityCp": [
        {
            "eqno": "16",
            "A": "100830",
            "B": "-531.56",
            "C": "13.456",
            "D": "0.000043333",
            "E": "-2.4118E-08",
            "Tmin": "300",
            "Tmax": "1500"
        },
        "J/kmol/K"
    ],
    "SecondVirialCoefficient": [
        {
            "eqno": "104",
            "A": "0.34296",
            "B": "-577.3",
            "C": "-147.03",
            "D": "-140880",
            "E": "339020",
            "Tmin": "344.5",
            "Tmax": "2000"
        },
        "m3/kmol"
    ],
    "LiquidViscosity": [
        {
            "eqno": "101",
            "A": "-8.9912",
            "B": "1148.7",
            "C": "-0.35833",
            "D": "4.6037E-07",
            "E": "2",
            "Tmin": "256.08",
            "Tmax": "483.65"
        },
        "Pa.s"
    ],
    "VaporViscosity": [
        {
            "eqno": "102",
            "A": "8.0354E-07",
            "B": "0.48062",
            "C": "391.1",
            "D": "176.97",
            "Tmin": "483.65",
            "Tmax": "1000"
        },
        "Pa.s"
    ],
    "LiquidThermalConductivity": [
        {
            "eqno": "16",
            "A": "-0.043466",
            "B": "-14.777",
            "C": "-1.4776",
            "D": "-0.00080068",
            "E": "-0.0000006904",
            "Tmin": "256.08",
            "Tmax": "483.65"
        },
        "W/m/K"
    ],
    "VaporThermalConductivity": [
        {
            "eqno": "102",
            "A": "0.31596",
            "B": "-0.074042",
            "C": "-318.59",
            "D": "1928600",
            "Tmin": "483.65",
            "Tmax": "1000"
        },
        "W/m/K"
    ],
    "RPPHeatCapacityCp": [
        {
            "eqno": "4",
            "A": "-44517",
            "B": "1071.8",
            "C": "-0.66372",
            "D": "0.00015645",
            "Tmin": "300",
            "Tmax": "1500"
        },
        "J/kmol/K"
    ],
    "RelativeStaticPermittivity": [
        {
            "eqno": "120",
            "A": "-1.756835",
            "B": "-1150",
            "C": "-6.9",
            "Tmin": "271.3722",
            "Tmax": "441.3722"
        },
        "_"
    ],
    "AntoineVaporPressure": [
        {
            "eqno": "10",
            "A": "20.599",
            "B": "3490",
            "C": "-98.353",
            "Tmin": "407.05",
            "Tmax": "597.86"
        },
        "Pa"
    ],
    "LiquidViscosityRPS": [
        {
            "eqno": "12",
            "A": "-4.216",
            "B": "-0.0097312",
            "Tmin": "256.08",
            "Tmax": "483.65"
        },
        "Pa.s"
    ],
    "COSTALDVolume": [
        "0.563273",
        "m3/kmol"
    ],
    "DiameterLJ": [
        "8.001313E-10",
        "m"
    ],
    "EnergyLJ": [
        "326.4983",
        "K"
    ],
    "RacketParameter": [
        "0.256",
        "_"
    ],
    "FullerVolume": [
        "214.08",
        "_"
    ],
    "Parachor": [
        "0.0776962",
        "kg0.25.m3/s0.5/kmol"
    ],
    "SpecificGravity": [
        "0.861206",
        "_"
    ],
    "Charge": [
        "0",
        "_"
    ],
    "CostaldAcentricFactor": [
        "0.390023",
        "_"
    ],
    "WilsonVolume": [
        "0.190236",
        "m3/kmol"
    ],
    "ChaoSeaderAcentricFactor": [
        "0.390023",
        "_"
    ],
    "ChaoSeaderSolubilityParameter": [
        "16930",
        "J0.5/m1.5"
    ],
    "ChaoSeaderLiquidVolume": [
        "0.190236",
        "m3/kmol"
    ],
    "RadiusOfGyration": [
        "5.178E-10",
        "m"
    ],
    "VanDerWaalsVolume": [
        "0.101",
        "m3/kmol"
    ],
    "VanDerWaalsArea": [
        "1.404E+09",
        "m2/kmol"
    ],
    "MatthiasCopemanC1": [
        "1.3262",
        "_"
    ],
    "SolidDensity": [
        {
            "eqno": "2",
            "A": "6.9021",
            "B": "-0.0029994",
            "C": "0",
            "D": "0",
            "E": "0",
            "Tmin": "102.43",
            "Tmax": "256.08"
        },
        "kmol/m3"
    ],
    "SurfaceTension": [
        {
            "eqno": "16",
            "A": "-0.01271",
            "B": "60.745",
            "C": "-3.2229",
            "D": "0.00049535",
            "E": "-0.0000035281",
            "Tmin": "256.08",
            "Tmax": "666.21"
        },
        "N/m"
    ],
    "MatthiasCopemanC2": [
        "-1.118",
        "_"
    ],
    "UniquacR": [
        "7.3538",
        "_"
    ],
    "UniquacQ": [
        "5.688",
        "_"
    ],
    "ApiSrkS2": [
        "0.022869",
        "_"
    ],
    "MatthiasCopemanC3": [
        "2.0168",
        "_"
    ],
    "SolidHeatCapacityCp": [
        {
            "eqno": "100",
            "A": "34130",
            "B": "321.92",
            "C": "9.2079",
            "D": "-0.053989",
            "E": "0.00010157",
            "Tmin": "50",
            "Tmax": "256.08"
        },
        "J/kmol/K"
    ],
    "UniquacQP": [
        "4.936",
        "_"
    ],
    "ApiSrkS1": [
        "0.59245",
        "_"
    ]
}