{
    "CAS": "102-71-6",
    "LibraryIndex": "1725",
    "CompoundID": "Triethanolamine",
    "StructureFormula": "(HOCH2CH2)3N",
    "Family": "68",
    "CriticalTemperature": [
        "787",
        "K"
    ],
    "CriticalPressure": [
        "3590000",
        "Pa"
    ],
    "CriticalVolume": [
        "0.472",
        "m3/kmol"
    ],
    "CriticalCompressibility": [
        "0.202",
        "_"
    ],
    "NormalBoilingPointTemperature": [
        "613",
        "K"
    ],
    "NormalMeltingPointTemperature": [
        "294.35",
        "K"
    ],
    "TriplePointTemperature": [
        "294.35",
        "K"
    ],
    "TriplePointPressure": [
        "0.000287009",
        "Pa"
    ],
    "MolecularWeight": [
        "149.188",
        "kg/kmol"
    ],
    "LiquidVolumeAtNormalBoilingPoint": [
        "0.132992",
        "m3/kmol"
    ],
    "AcentricityFactor": [
        "1.28411",
        "_"
    ],
    "SolubilityParameter": [
        "27430",
        "J0.5/m1.5"
    ],
    "DipoleMoment": [
        "3.6E-30",
        "Coulomb.m"
    ],
    "HeatOfFormation": [
        "-5.54E+08",
        "J/kmol"
    ],
    "GibbsEnergyOfFormation": [
        "-2.994E+08",
        "J/kmol"
    ],
    "AbsEntropy": [
        "538000",
        "J/kmol/K"
    ],
    "HeatOfFusionAtMeltingPoint": [
        "2.7191E+07",
        "J/kmol"
    ],
    "HeatOfCombustion": [
        "-3.5025E+09",
        "J/kmol"
    ],
    "LiquidDensity": [
        {
            "eqno": "105",
            "A": "0.028938",
            "B": "0.058014",
            "C": "787",
            "D": "0.099632",
            "Tmin": "283.15",
            "Tmax": "772.1"
        },
        "kmol/m3"
    ],
    "VaporPressure": [
        {
            "eqno": "101",
            "A": "283.76",
            "B": "-24672",
            "C": "-37.048",
            "D": "0.000015689",
            "E": "2",
            "Tmin": "294.35",
            "Tmax": "772.1"
        },
        "Pa"
    ],
    "HeatOfVaporization": [
        {
            "eqno": "106",
            "A": "1.354875E+08",
            "B": "0.343894",
            "C": "0.961738",
            "D": "-1.466285",
            "E": "0.442687",
            "Tmin": "294.35",
            "Tmax": "772.1"
        },
        "J/kmol"
    ],
    "LiquidHeatCapacityCp": [
        {
            "eqno": "16",
            "A": "285560",
            "B": "313.35",
            "C": "6.351",
            "D": "0.016374",
            "E": "-0.000012842",
            "Tmin": "293.15",
            "Tmax": "633.15"
        },
        "J/kmol/K"
    ],
    "IdealGasHeatCapacityCp": [
        {
            "eqno": "16",
            "A": "114870",
            "B": "-616.04",
            "C": "13.509",
            "D": "-0.00048074",
            "E": "2.2464E-07",
            "Tmin": "273",
            "Tmax": "1200.15"
        },
        "J/kmol/K"
    ],
    "SecondVirialCoefficient": [
        {
            "eqno": "104",
            "A": "0.40996",
            "B": "-214.21",
            "C": "-459.31",
            "D": "-488000",
            "E": "535120",
            "Tmin": "386.1",
            "Tmax": "1500"
        },
        "m3/kmol"
    ],
    "LiquidViscosity": [
        {
            "eqno": "101",
            "A": "33.605",
            "B": "4399.7",
            "C": "-8.9203",
            "D": "0.000021038",
            "E": "2",
            "Tmin": "293.15",
            "Tmax": "617.68"
        },
        "Pa.s"
    ],
    "VaporViscosity": [
        {
            "eqno": "102",
            "A": "3.0013E-08",
            "B": "0.95199",
            "C": "45.139",
            "D": "-3355.9",
            "Tmin": "294.35",
            "Tmax": "1000"
        },
        "Pa.s"
    ],
    "LiquidThermalConductivity": [
        {
            "eqno": "16",
            "A": "-0.76863",
            "B": "26.11",
            "C": "-0.3374",
            "D": "0.0010847",
            "E": "-0.0000011937",
            "Tmin": "294.35",
            "Tmax": "723.15"
        },
        "W/m/K"
    ],
    "VaporThermalConductivity": [
        {
            "eqno": "102",
            "A": "0.043843",
            "B": "0.38395",
            "C": "6681.4",
            "D": "1202500",
            "Tmin": "608.54",
            "Tmax": "1000"
        },
        "W/m/K"
    ],
    "RPPHeatCapacityCp": [
        {
            "eqno": "4",
            "A": "-21521",
            "B": "918.12",
            "C": "-0.68139",
            "D": "0.00020714",
            "Tmin": "273",
            "Tmax": "1200.15"
        },
        "J/kmol/K"
    ],
    "RelativeStaticPermittivity": [
        {
            "eqno": "120",
            "A": "-17.59",
            "B": "-10000",
            "C": "-84.33",
            "Tmin": "294.35",
            "Tmax": "450"
        },
        "_"
    ],
    "AntoineVaporPressure": [
        {
            "eqno": "10",
            "A": "24.348",
            "B": "6603",
            "C": "-93.899",
            "Tmin": "475.15",
            "Tmax": "696.67"
        },
        "Pa"
    ],
    "LiquidViscosityRPS": [
        {
            "eqno": "12",
            "A": "6.6572",
            "B": "-0.027285",
            "Tmin": "293.15",
            "Tmax": "617.68"
        },
        "Pa.s"
    ],
    "COSTALDVolume": [
        "0.493725",
        "m3/kmol"
    ],
    "DiameterLJ": [
        "9.903848E-10",
        "m"
    ],
    "EnergyLJ": [
        "162.2381",
        "K"
    ],
    "RacketParameter": [
        "0.202",
        "_"
    ],
    "FullerVolume": [
        "152.92",
        "_"
    ],
    "Parachor": [
        "0.063602",
        "kg0.25.m3/s0.5/kmol"
    ],
    "SpecificGravity": [
        "1.131188",
        "_"
    ],
    "Charge": [
        "0",
        "_"
    ],
    "CostaldAcentricFactor": [
        "1.28411",
        "_"
    ],
    "WilsonVolume": [
        "0.132992",
        "m3/kmol"
    ],
    "ChaoSeaderAcentricFactor": [
        "1.28411",
        "_"
    ],
    "ChaoSeaderSolubilityParameter": [
        "27430",
        "J0.5/m1.5"
    ],
    "ChaoSeaderLiquidVolume": [
        "0.132992",
        "m3/kmol"
    ],
    "RadiusOfGyration": [
        "5.219E-10",
        "m"
    ],
    "VanDerWaalsVolume": [
        "0.08983",
        "m3/kmol"
    ],
    "VanDerWaalsArea": [
        "1.271E+09",
        "m2/kmol"
    ],
    "MatthiasCopemanC1": [
        "2.21",
        "_"
    ],
    "SolidDensity": [
        {
            "eqno": "2",
            "A": "9.5621",
            "B": "-0.0036262",
            "C": "0",
            "D": "0",
            "E": "0",
            "Tmin": "117.74",
            "Tmax": "294.35"
        },
        "kmol/m3"
    ],
    "SurfaceTension": [
        {
            "eqno": "16",
            "A": "-0.151321",
            "B": "49.37161",
            "C": "-1.697977",
            "D": "-0.00029278",
            "E": "-3.656577E-08",
            "Tmin": "294.35",
            "Tmax": "787"
        },
        "N/m"
    ],
    "MatthiasCopemanC2": [
        "0",
        "_"
    ],
    "UniquacR": [
        "7.3317",
        "_"
    ],
    "UniquacQ": [
        "6.932",
        "_"
    ],
    "ApiSrkS2": [
        "0.141244",
        "_"
    ],
    "MatthiasCopemanC3": [
        "0",
        "_"
    ],
    "SolidHeatCapacityCp": [
        {
            "eqno": "100",
            "A": "8095.9",
            "B": "970.95",
            "C": "-1.7742",
            "D": "0.0042146",
            "E": "-0.0000044001",
            "Tmin": "50",
            "Tmax": "294.35"
        },
        "J/kmol/K"
    ],
    "UniquacQP": [
        "4.936",
        "_"
    ],
    "ApiSrkS1": [
        "0.529899",
        "_"
    ]
}