{
    "CAS": "104-51-8",
    "LibraryIndex": "518",
    "CompoundID": "N-butylbenzene",
    "StructureFormula": "(C6H5)(CH2)3CH3",
    "Family": "16",
    "CriticalTemperature": [
        "660.5",
        "K"
    ],
    "CriticalPressure": [
        "2890000",
        "Pa"
    ],
    "CriticalVolume": [
        "0.497",
        "m3/kmol"
    ],
    "CriticalCompressibility": [
        "0.262",
        "_"
    ],
    "NormalBoilingPointTemperature": [
        "456.42",
        "K"
    ],
    "NormalMeltingPointTemperature": [
        "185.3",
        "K"
    ],
    "TriplePointTemperature": [
        "185.3",
        "K"
    ],
    "TriplePointPressure": [
        "0.000154386",
        "Pa"
    ],
    "MolecularWeight": [
        "134.221",
        "kg/kmol"
    ],
    "LiquidVolumeAtNormalBoilingPoint": [
        "0.15678",
        "m3/kmol"
    ],
    "AcentricityFactor": [
        "0.393",
        "_"
    ],
    "SolubilityParameter": [
        "17510",
        "J0.5/m1.5"
    ],
    "DipoleMoment": [
        "1.23E-30",
        "Coulomb.m"
    ],
    "HeatOfFormation": [
        "-1.314E+07",
        "J/kmol"
    ],
    "GibbsEnergyOfFormation": [
        "1.454E+08",
        "J/kmol"
    ],
    "AbsEntropy": [
        "439490",
        "J/kmol/K"
    ],
    "HeatOfFusionAtMeltingPoint": [
        "1.122E+07",
        "J/kmol"
    ],
    "HeatOfCombustion": [
        "-5.5644E+09",
        "J/kmol"
    ],
    "LiquidDensity": [
        {
            "eqno": "105",
            "A": "0.50648",
            "B": "0.25203",
            "C": "660.5",
            "D": "0.29203",
            "Tmin": "183.15",
            "Tmax": "660.5"
        },
        "kmol/m3"
    ],
    "VaporPressure": [
        {
            "eqno": "101",
            "A": "100.11",
            "B": "-9186.6",
            "C": "-11.379",
            "D": "0.0000058585",
            "E": "2",
            "Tmin": "185.3",
            "Tmax": "660.5"
        },
        "Pa"
    ],
    "HeatOfVaporization": [
        {
            "eqno": "106",
            "A": "6.5698E+07",
            "B": "0.30842",
            "C": "0.67062",
            "D": "-1.1135",
            "E": "0.53276",
            "Tmin": "185.3",
            "Tmax": "660.5"
        },
        "J/kmol"
    ],
    "LiquidHeatCapacityCp": [
        {
            "eqno": "16",
            "A": "173590",
            "B": "115.14",
            "C": "7.4501",
            "D": "0.014631",
            "E": "-0.000011875",
            "Tmin": "185.3",
            "Tmax": "400"
        },
        "J/kmol/K"
    ],
    "IdealGasHeatCapacityCp": [
        {
            "eqno": "16",
            "A": "97423",
            "B": "-619.62",
            "C": "13.35",
            "D": "-0.000032816",
            "E": "-9.3502E-09",
            "Tmin": "200",
            "Tmax": "1500"
        },
        "J/kmol/K"
    ],
    "SecondVirialCoefficient": [
        {
            "eqno": "104",
            "A": "0.28148",
            "B": "-399.22",
            "C": "-98.306",
            "D": "-38470",
            "E": "66230",
            "Tmin": "330",
            "Tmax": "1815"
        },
        "m3/kmol"
    ],
    "LiquidViscosity": [
        {
            "eqno": "101",
            "A": "-18.829",
            "B": "1737.7",
            "C": "1.0385",
            "D": "0.0000015468",
            "E": "2",
            "Tmin": "200",
            "Tmax": "456.46"
        },
        "Pa.s"
    ],
    "VaporViscosity": [
        {
            "eqno": "102",
            "A": "3.4687E-07",
            "B": "0.59512",
            "C": "233.67",
            "D": "177.63",
            "Tmin": "185.3",
            "Tmax": "1000"
        },
        "Pa.s"
    ],
    "LiquidThermalConductivity": [
        {
            "eqno": "16",
            "A": "0.081204",
            "B": "245.71",
            "C": "-5.5946",
            "D": "0.01322",
            "E": "-0.00002506",
            "Tmin": "185.3",
            "Tmax": "473.15"
        },
        "W/m/K"
    ],
    "VaporThermalConductivity": [
        {
            "eqno": "102",
            "A": "0.19225",
            "B": "-0.0011093",
            "C": "-156.74",
            "D": "1712400",
            "Tmin": "456.46",
            "Tmax": "1000"
        },
        "W/m/K"
    ],
    "RPPHeatCapacityCp": [
        {
            "eqno": "100",
            "A": "53961",
            "B": "158.64",
            "C": "1.3025",
            "D": "-0.0018341",
            "E": "7.3891E-07",
            "Tmin": "200",
            "Tmax": "1000"
        },
        "J/kmol/K"
    ],
    "RelativeStaticPermittivity": [
        {
            "eqno": "120",
            "A": "-1.4825",
            "B": "-1000",
            "C": "-6",
            "Tmin": "274.15",
            "Tmax": "444.15"
        },
        "_"
    ],
    "AntoineVaporPressure": [
        {
            "eqno": "10",
            "A": "21.151",
            "B": "3770",
            "C": "-64.789",
            "Tmin": "400.04",
            "Tmax": "585.47"
        },
        "Pa"
    ],
    "LiquidViscosityRPS": [
        {
            "eqno": "13",
            "A": "2.5752",
            "B": "-0.047333",
            "C": "0.000051973",
            "Tmin": "200",
            "Tmax": "456.46"
        },
        "Pa.s"
    ],
    "COSTALDVolume": [
        "0.49211",
        "m3/kmol"
    ],
    "DiameterLJ": [
        "7.374551E-10",
        "m"
    ],
    "EnergyLJ": [
        "347.2727",
        "K"
    ],
    "RacketParameter": [
        "0.259776",
        "_"
    ],
    "FullerVolume": [
        "173.04",
        "_"
    ],
    "Parachor": [
        "0.064",
        "kg0.25.m3/s0.5/kmol"
    ],
    "SpecificGravity": [
        "0.863174",
        "_"
    ],
    "Charge": [
        "0",
        "_"
    ],
    "CostaldAcentricFactor": [
        "0.3921",
        "_"
    ],
    "WilsonVolume": [
        "0.156494",
        "m3/kmol"
    ],
    "ChaoSeaderAcentricFactor": [
        "0.3923",
        "_"
    ],
    "ChaoSeaderSolubilityParameter": [
        "17450.9",
        "J0.5/m1.5"
    ],
    "ChaoSeaderLiquidVolume": [
        "0.156494",
        "m3/kmol"
    ],
    "RadiusOfGyration": [
        "4.849E-10",
        "m"
    ],
    "VanDerWaalsVolume": [
        "0.0902",
        "m3/kmol"
    ],
    "VanDerWaalsArea": [
        "1.147E+09",
        "m2/kmol"
    ],
    "MatthiasCopemanC1": [
        "1.218",
        "_"
    ],
    "SolidDensity": [
        {
            "eqno": "2",
            "A": "8.915",
            "B": "-0.0053456",
            "Tmin": "74.12",
            "Tmax": "185.3"
        },
        "kmol/m3"
    ],
    "SurfaceTension": [
        {
            "eqno": "16",
            "A": "-0.0077709",
            "B": "39.218",
            "C": "-3.1402",
            "D": "0.00039689",
            "E": "-0.0000047539",
            "Tmin": "185.3",
            "Tmax": "660.5"
        },
        "N/m"
    ],
    "MatthiasCopemanC2": [
        "-1.3181",
        "_"
    ],
    "UniquacR": [
        "5.946",
        "_"
    ],
    "UniquacQ": [
        "4.588",
        "_"
    ],
    "ApiSrkS2": [
        "-0.005215",
        "_"
    ],
    "MatthiasCopemanC3": [
        "2.7426",
        "_"
    ],
    "SolidHeatCapacityCp": [
        {
            "eqno": "100",
            "A": "-18859",
            "B": "1942.8",
            "C": "-11.998",
            "D": "0.0352",
            "E": "-0.0000012248",
            "Tmin": "15.46",
            "Tmax": "176.91"
        },
        "J/kmol/K"
    ],
    "UniquacQP": [
        "4.936",
        "_"
    ],
    "ApiSrkS1": [
        "0.745244",
        "_"
    ]
}