{
    "CAS": "1067-20-5",
    "LibraryIndex": "50",
    "CompoundID": "3,3-diethylpentane",
    "StructureFormula": "CH3CH2C(C2H5)2CH2CH3",
    "Family": "4",
    "CriticalTemperature": [
        "610.05",
        "K"
    ],
    "CriticalPressure": [
        "2674980",
        "Pa"
    ],
    "CriticalVolume": [
        "0.473",
        "m3/kmol"
    ],
    "CriticalCompressibility": [
        "0.249",
        "_"
    ],
    "NormalBoilingPointTemperature": [
        "419.34",
        "K"
    ],
    "NormalMeltingPointTemperature": [
        "240.12",
        "K"
    ],
    "TriplePointTemperature": [
        "240.12",
        "K"
    ],
    "TriplePointPressure": [
        "13.7918",
        "Pa"
    ],
    "MolecularWeight": [
        "128.255",
        "kg/kmol"
    ],
    "LiquidVolumeAtNormalBoilingPoint": [
        "0.171012",
        "m3/kmol"
    ],
    "AcentricityFactor": [
        "0.3379",
        "_"
    ],
    "SolubilityParameter": [
        "15220",
        "J0.5/m1.5"
    ],
    "DipoleMoment": [
        "0",
        "Coulomb.m"
    ],
    "HeatOfFormation": [
        "-2.31835E+08",
        "J/kmol"
    ],
    "GibbsEnergyOfFormation": [
        "4.17E+07",
        "J/kmol"
    ],
    "AbsEntropy": [
        "436500",
        "J/kmol/K"
    ],
    "HeatOfFusionAtMeltingPoint": [
        "9800000",
        "J/kmol"
    ],
    "HeatOfCombustion": [
        "-5.68438E+09",
        "J/kmol"
    ],
    "LiquidDensity": [
        {
            "eqno": "105",
            "A": "0.61216",
            "B": "0.28967",
            "C": "610.05",
            "D": "0.29325",
            "Tmin": "240.12",
            "Tmax": "610.05"
        },
        "kmol/m3"
    ],
    "VaporPressure": [
        {
            "eqno": "101",
            "A": "143.8917",
            "B": "-9842.666",
            "C": "-18.51396",
            "D": "0.000016514",
            "E": "2",
            "Tmin": "240.12",
            "Tmax": "610.05"
        },
        "Pa"
    ],
    "HeatOfVaporization": [
        {
            "eqno": "106",
            "A": "5.0222E+07",
            "B": "-0.028455",
            "C": "0.90984",
            "D": "-0.78409",
            "E": "0.24027",
            "Tmin": "240.12",
            "Tmax": "610.05"
        },
        "J/kmol"
    ],
    "LiquidHeatCapacityCp": [
        {
            "eqno": "16",
            "A": "167890",
            "B": "37.678",
            "C": "8.6605",
            "D": "0.012988",
            "E": "-0.000011813",
            "Tmin": "240.1",
            "Tmax": "419.34"
        },
        "J/kmol/K"
    ],
    "IdealGasHeatCapacityCp": [
        {
            "eqno": "16",
            "A": "120540",
            "B": "-563.25",
            "C": "13.32",
            "D": "0.00012473",
            "E": "-3.6626E-08",
            "Tmin": "150",
            "Tmax": "1500"
        },
        "J/kmol/K"
    ],
    "SecondVirialCoefficient": [
        {
            "eqno": "104",
            "A": "0.26457",
            "B": "-346.37",
            "C": "-88.76",
            "D": "-14602",
            "E": "15928",
            "Tmin": "240.12",
            "Tmax": "2000"
        },
        "m3/kmol"
    ],
    "LiquidViscosity": [
        {
            "eqno": "101",
            "A": "-12.975",
            "B": "1131.8",
            "C": "0.25767",
            "D": "-3.4761E-07",
            "E": "2",
            "Tmin": "240.12",
            "Tmax": "419.34"
        },
        "Pa.s"
    ],
    "VaporViscosity": [
        {
            "eqno": "102",
            "A": "3.6575E-07",
            "B": "0.57536",
            "C": "184.44",
            "D": "2017.7",
            "Tmin": "419.34",
            "Tmax": "1000"
        },
        "Pa.s"
    ],
    "LiquidThermalConductivity": [
        {
            "eqno": "16",
            "A": "-0.021495",
            "B": "-29.993",
            "C": "-1.4603",
            "D": "-0.0013716",
            "E": "-7.6272E-07",
            "Tmin": "240.12",
            "Tmax": "419.34"
        },
        "W/m/K"
    ],
    "VaporThermalConductivity": [
        {
            "eqno": "102",
            "A": "0.000069723",
            "B": "1.0959",
            "C": "342.29",
            "D": "74930",
            "Tmin": "419.34",
            "Tmax": "999.34"
        },
        "W/m/K"
    ],
    "RPPHeatCapacityCp": [
        {
            "eqno": "4",
            "A": "13160",
            "B": "797.17",
            "C": "-0.3726",
            "D": "0.000062998",
            "Tmin": "150",
            "Tmax": "1500"
        },
        "J/kmol/K"
    ],
    "RelativeStaticPermittivity": [
        {
            "eqno": "120",
            "A": "-1.404923",
            "B": "-950",
            "C": "-5.7",
            "Tmin": "274.15",
            "Tmax": "444.15"
        },
        "_"
    ],
    "AntoineVaporPressure": [
        {
            "eqno": "10",
            "A": "20.726",
            "B": "3317.6",
            "C": "-58.699",
            "Tmin": "373.64",
            "Tmax": "532.17"
        },
        "Pa"
    ],
    "LiquidViscosityRPS": [
        {
            "eqno": "12",
            "A": "-4.5181",
            "B": "-0.010538",
            "Tmin": "240.12",
            "Tmax": "419.34"
        },
        "Pa.s"
    ],
    "COSTALDVolume": [
        "0.550163",
        "m3/kmol"
    ],
    "DiameterLJ": [
        "7.710682E-10",
        "m"
    ],
    "EnergyLJ": [
        "267.0522",
        "K"
    ],
    "RacketParameter": [
        "0.249",
        "_"
    ],
    "FullerVolume": [
        "189.3",
        "_"
    ],
    "Parachor": [
        "0.0660643",
        "kg0.25.m3/s0.5/kmol"
    ],
    "SpecificGravity": [
        "0.757461",
        "_"
    ],
    "Charge": [
        "0",
        "_"
    ],
    "CostaldAcentricFactor": [
        "0.3379",
        "_"
    ],
    "WilsonVolume": [
        "0.171012",
        "m3/kmol"
    ],
    "ChaoSeaderAcentricFactor": [
        "0.3379",
        "_"
    ],
    "ChaoSeaderSolubilityParameter": [
        "15220",
        "J0.5/m1.5"
    ],
    "ChaoSeaderLiquidVolume": [
        "0.171012",
        "m3/kmol"
    ],
    "RadiusOfGyration": [
        "4.314E-10",
        "m"
    ],
    "VanDerWaalsVolume": [
        "0.09893",
        "m3/kmol"
    ],
    "VanDerWaalsArea": [
        "1.388E+09",
        "m2/kmol"
    ],
    "MatthiasCopemanC1": [
        "0.97551",
        "_"
    ],
    "SolidDensity": [
        {
            "eqno": "2",
            "A": "7.812",
            "B": "-0.0035815",
            "C": "0",
            "D": "0",
            "E": "0",
            "Tmin": "96.05",
            "Tmax": "240.12"
        },
        "kmol/m3"
    ],
    "SurfaceTension": [
        {
            "eqno": "16",
            "A": "-0.09195",
            "B": "-27.641",
            "C": "-1.6687",
            "D": "-0.001559",
            "E": "7.4071E-07",
            "Tmin": "240.12",
            "Tmax": "610.05"
        },
        "N/m"
    ],
    "MatthiasCopemanC2": [
        "0",
        "_"
    ],
    "UniquacR": [
        "6.5215",
        "_"
    ],
    "UniquacQ": [
        "5.552",
        "_"
    ],
    "ApiSrkS2": [
        "-0.009265",
        "_"
    ],
    "MatthiasCopemanC3": [
        "0",
        "_"
    ],
    "SolidHeatCapacityCp": [
        {
            "eqno": "100",
            "A": "-6779",
            "B": "1486.6",
            "C": "-4.3383",
            "D": "0.0056081",
            "E": "0.000012002",
            "Tmin": "30",
            "Tmax": "240.1"
        },
        "J/kmol/K"
    ],
    "UniquacQP": [
        "4.936",
        "_"
    ],
    "ApiSrkS1": [
        "0.59245",
        "_"
    ]
}