{
    "CAS": "107-00-6",
    "LibraryIndex": "403",
    "CompoundID": "Ethylacetylene",
    "StructureFormula": "CH3CH2CCH",
    "Family": "15",
    "CriticalTemperature": [
        "440",
        "K"
    ],
    "CriticalPressure": [
        "4600000",
        "Pa"
    ],
    "CriticalVolume": [
        "0.208",
        "m3/kmol"
    ],
    "CriticalCompressibility": [
        "0.262",
        "_"
    ],
    "NormalBoilingPointTemperature": [
        "281.21",
        "K"
    ],
    "NormalMeltingPointTemperature": [
        "147.429",
        "K"
    ],
    "TriplePointTemperature": [
        "147.43",
        "K"
    ],
    "TriplePointPressure": [
        "1.17966",
        "Pa"
    ],
    "MolecularWeight": [
        "54.092",
        "kg/kmol"
    ],
    "LiquidVolumeAtNormalBoilingPoint": [
        "0.08322",
        "m3/kmol"
    ],
    "AcentricityFactor": [
        "0.245",
        "_"
    ],
    "SolubilityParameter": [
        "15950",
        "J0.5/m1.5"
    ],
    "DipoleMoment": [
        "2.7E-30",
        "Coulomb.m"
    ],
    "HeatOfFormation": [
        "1.652E+08",
        "J/kmol"
    ],
    "GibbsEnergyOfFormation": [
        "2.0225E+08",
        "J/kmol"
    ],
    "AbsEntropy": [
        "290390",
        "J/kmol/K"
    ],
    "HeatOfFusionAtMeltingPoint": [
        "6029270",
        "J/kmol"
    ],
    "HeatOfCombustion": [
        "-2.4647E+09",
        "J/kmol"
    ],
    "LiquidDensity": [
        {
            "eqno": "105",
            "A": "1.3447",
            "B": "0.27928",
            "C": "440",
            "D": "0.29778",
            "Tmin": "147.43",
            "Tmax": "440"
        },
        "kmol/m3"
    ],
    "VaporPressure": [
        {
            "eqno": "101",
            "A": "76.044",
            "B": "-5031.59",
            "C": "-8.40406",
            "D": "9.681824E-06",
            "E": "2",
            "Tmin": "147.43",
            "Tmax": "440"
        },
        "Pa"
    ],
    "HeatOfVaporization": [
        {
            "eqno": "106",
            "A": "3.604722E+07",
            "B": "0.546439",
            "C": "-0.26185",
            "D": "0",
            "E": "0",
            "Tmin": "147.43",
            "Tmax": "463.15"
        },
        "J/kmol"
    ],
    "LiquidHeatCapacityCp": [
        {
            "eqno": "16",
            "A": "109820",
            "B": "1148.7",
            "C": "-9.607",
            "D": "0.084548",
            "E": "-0.00010384",
            "Tmin": "147.43",
            "Tmax": "298.15"
        },
        "J/kmol/K"
    ],
    "IdealGasHeatCapacityCp": [
        {
            "eqno": "16",
            "A": "44709",
            "B": "-441.89",
            "C": "11.889",
            "D": "0.00039371",
            "E": "-1.2645E-07",
            "Tmin": "150",
            "Tmax": "1500"
        },
        "J/kmol/K"
    ],
    "SecondVirialCoefficient": [
        {
            "eqno": "104",
            "A": "0.11439",
            "B": "-115.33",
            "C": "-13.916",
            "D": "565.16",
            "E": "-1644.3",
            "Tmin": "231.85",
            "Tmax": "1896"
        },
        "m3/kmol"
    ],
    "LiquidViscosity": [
        {
            "eqno": "101",
            "A": "-4.3451",
            "B": "354.46",
            "C": "-0.92921",
            "D": "-0.0000006027",
            "E": "2",
            "Tmin": "147.43",
            "Tmax": "373.15"
        },
        "Pa.s"
    ],
    "VaporViscosity": [
        {
            "eqno": "102",
            "A": "0.0000027867",
            "B": "0.37696",
            "C": "663.32",
            "D": "30.832",
            "Tmin": "147.43",
            "Tmax": "800"
        },
        "Pa.s"
    ],
    "LiquidThermalConductivity": [
        {
            "eqno": "16",
            "A": "-0.032845",
            "B": "13.956",
            "C": "-1.5811",
            "D": "-0.00025138",
            "E": "-0.0000029965",
            "Tmin": "147.43",
            "Tmax": "373.15"
        },
        "W/m/K"
    ],
    "VaporThermalConductivity": [
        {
            "eqno": "102",
            "A": "0.000036868",
            "B": "1.1429",
            "C": "-57.854",
            "D": "83816",
            "Tmin": "281.22",
            "Tmax": "1000"
        },
        "W/m/K"
    ],
    "RPPHeatCapacityCp": [
        {
            "eqno": "100",
            "A": "24902",
            "B": "172.94",
            "C": "0.12971",
            "D": "-0.00028785",
            "E": "1.2671E-07",
            "Tmin": "50",
            "Tmax": "1000"
        },
        "J/kmol/K"
    ],
    "RelativeStaticPermittivity": [
        {
            "eqno": "120",
            "A": "-2.19455",
            "B": "-1400",
            "C": "-8.4",
            "Tmin": "269.7056",
            "Tmax": "439.7056"
        },
        "_"
    ],
    "AntoineVaporPressure": [
        {
            "eqno": "10",
            "A": "21.172",
            "B": "2381.3",
            "C": "-34.36",
            "Tmin": "264.46",
            "Tmax": "393.8"
        },
        "Pa"
    ],
    "LiquidViscosityRPS": [
        {
            "eqno": "13",
            "A": "-3.5057",
            "B": "-0.026061",
            "C": "0.000030844",
            "Tmin": "147.43",
            "Tmax": "373.15"
        },
        "Pa.s"
    ],
    "COSTALDVolume": [
        "0.230791",
        "m3/kmol"
    ],
    "DiameterLJ": [
        "5.516173E-10",
        "m"
    ],
    "EnergyLJ": [
        "231.3399",
        "K"
    ],
    "RacketParameter": [
        "0.274238",
        "_"
    ],
    "FullerVolume": [
        "77.46",
        "_"
    ],
    "Parachor": [
        "0.0299",
        "kg0.25.m3/s0.5/kmol"
    ],
    "SpecificGravity": [
        "0.659288",
        "_"
    ],
    "Charge": [
        "0",
        "_"
    ],
    "CostaldAcentricFactor": [
        "0.246864",
        "_"
    ],
    "WilsonVolume": [
        "0.0809511",
        "m3/kmol"
    ],
    "ChaoSeaderAcentricFactor": [
        "0.246864",
        "_"
    ],
    "ChaoSeaderSolubilityParameter": [
        "16554",
        "J0.5/m1.5"
    ],
    "ChaoSeaderLiquidVolume": [
        "0.0809511",
        "m3/kmol"
    ],
    "RadiusOfGyration": [
        "2.616E-10",
        "m"
    ],
    "VanDerWaalsVolume": [
        "0.0435",
        "m3/kmol"
    ],
    "VanDerWaalsArea": [
        "6.19E+08",
        "m2/kmol"
    ],
    "MatthiasCopemanC1": [
        "0.86034",
        "_"
    ],
    "SolidDensity": [
        {
            "eqno": "2",
            "A": "19.004",
            "B": "-0.015369",
            "Tmin": "58.97",
            "Tmax": "147.43"
        },
        "kmol/m3"
    ],
    "SurfaceTension": [
        {
            "eqno": "16",
            "A": "-0.018233",
            "B": "58.318",
            "C": "-3.4452",
            "D": "0.0022742",
            "E": "-0.0000088254",
            "Tmin": "147.43",
            "Tmax": "440"
        },
        "N/m"
    ],
    "MatthiasCopemanC2": [
        "0",
        "_"
    ],
    "UniquacR": [
        "2.8675",
        "_"
    ],
    "UniquacQ": [
        "2.476",
        "_"
    ],
    "ApiSrkS2": [
        "-0.109294",
        "_"
    ],
    "MatthiasCopemanC3": [
        "0",
        "_"
    ],
    "SolidHeatCapacityCp": [
        {
            "eqno": "100",
            "A": "-16604",
            "B": "1465.2",
            "C": "-11.028",
            "D": "0.042838",
            "E": "-0.000042808",
            "Tmin": "20",
            "Tmax": "140"
        },
        "J/kmol/K"
    ],
    "UniquacQP": [
        "0.89",
        "_"
    ],
    "ApiSrkS1": [
        "0.169684",
        "_"
    ]
}