{
    "CAS": "107-92-6",
    "LibraryIndex": "1256",
    "CompoundID": "N-butyric acid",
    "StructureFormula": "CH3CH2CH2COOH",
    "Family": "50",
    "CriticalTemperature": [
        "624",
        "K"
    ],
    "CriticalPressure": [
        "4030000",
        "Pa"
    ],
    "CriticalVolume": [
        "0.292",
        "m3/kmol"
    ],
    "CriticalCompressibility": [
        "0.227",
        "_"
    ],
    "NormalBoilingPointTemperature": [
        "436.87",
        "K"
    ],
    "NormalMeltingPointTemperature": [
        "267.95",
        "K"
    ],
    "TriplePointTemperature": [
        "267.95",
        "K"
    ],
    "TriplePointPressure": [
        "10.3",
        "Pa"
    ],
    "MolecularWeight": [
        "88.106",
        "kg/kmol"
    ],
    "LiquidVolumeAtNormalBoilingPoint": [
        "0.09246",
        "m3/kmol"
    ],
    "AcentricityFactor": [
        "0.72",
        "_"
    ],
    "SolubilityParameter": [
        "20180",
        "J0.5/m1.5"
    ],
    "DipoleMoment": [
        "5.5E-30",
        "Coulomb.m"
    ],
    "HeatOfFormation": [
        "-4.758E+08",
        "J/kmol"
    ],
    "GibbsEnergyOfFormation": [
        "-3.6E+08",
        "J/kmol"
    ],
    "AbsEntropy": [
        "360100",
        "J/kmol/K"
    ],
    "HeatOfFusionAtMeltingPoint": [
        "1.159E+07",
        "J/kmol"
    ],
    "HeatOfCombustion": [
        "-2.008E+09",
        "J/kmol"
    ],
    "LiquidDensity": [
        {
            "eqno": "105",
            "A": "0.702",
            "B": "0.22902",
            "C": "628.16",
            "D": "0.24275",
            "Tmin": "267.95",
            "Tmax": "628.15"
        },
        "kmol/m3"
    ],
    "VaporPressure": [
        {
            "eqno": "101",
            "A": "54.31047",
            "B": "-7692.649",
            "C": "-4.148708",
            "D": "2.624319E-07",
            "E": "2",
            "Tmin": "267.95",
            "Tmax": "625.15"
        },
        "Pa"
    ],
    "HeatOfVaporization": [
        {
            "eqno": "106",
            "A": "5.1387E+07",
            "B": "1.1517",
            "C": "-2.7656",
            "D": "2.6617",
            "E": "-0.66983",
            "Tmin": "250",
            "Tmax": "615.7"
        },
        "J/kmol"
    ],
    "LiquidHeatCapacityCp": [
        {
            "eqno": "16",
            "A": "135560",
            "B": "664.7",
            "C": "1.9592",
            "D": "0.027685",
            "E": "-0.000020111",
            "Tmin": "267.89",
            "Tmax": "436.42"
        },
        "J/kmol/K"
    ],
    "IdealGasHeatCapacityCp": [
        {
            "eqno": "16",
            "A": "75565",
            "B": "-613.25",
            "C": "12.671",
            "D": "-0.000058773",
            "E": "-2.4845E-08",
            "Tmin": "267.95",
            "Tmax": "1500"
        },
        "J/kmol/K"
    ],
    "SecondVirialCoefficient": [
        {
            "eqno": "104",
            "A": "0.15508",
            "B": "-121.34",
            "C": "-57.373",
            "D": "-20817",
            "E": "36332",
            "Tmin": "293.5",
            "Tmax": "1877.5"
        },
        "m3/kmol"
    ],
    "LiquidViscosity": [
        {
            "eqno": "101",
            "A": "14.241",
            "B": "534.99",
            "C": "-4.0411",
            "D": "0.0000053437",
            "E": "2",
            "Tmin": "267.95",
            "Tmax": "436.42"
        },
        "Pa.s"
    ],
    "VaporViscosity": [
        {
            "eqno": "102",
            "A": "2.2745E-08",
            "B": "1.0055",
            "C": "13.097",
            "D": "182.58",
            "Tmin": "267.95",
            "Tmax": "1000"
        },
        "Pa.s"
    ],
    "LiquidThermalConductivity": [
        {
            "eqno": "16",
            "A": "-0.043955",
            "B": "57.698",
            "C": "-1.8847",
            "D": "0.00050649",
            "E": "-0.0000013441",
            "Tmin": "259.29",
            "Tmax": "573.15"
        },
        "W/m/K"
    ],
    "VaporThermalConductivity": [
        {
            "eqno": "102",
            "A": "0.00010747",
            "B": "1.3444",
            "C": "19634",
            "D": "-7296600",
            "Tmin": "436.42",
            "Tmax": "706.95"
        },
        "W/m/K"
    ],
    "RPPHeatCapacityCp": [
        {
            "eqno": "4",
            "A": "9096.2",
            "B": "429.44",
            "C": "-0.26202",
            "D": "0.000057916",
            "Tmin": "267.95",
            "Tmax": "1500"
        },
        "J/kmol/K"
    ],
    "RelativeStaticPermittivity": [
        {
            "eqno": "120",
            "A": "-2.197557",
            "B": "-1450",
            "C": "-8.7",
            "Tmin": "274.15",
            "Tmax": "444.15"
        },
        "_"
    ],
    "AntoineVaporPressure": [
        {
            "eqno": "10",
            "A": "22.149",
            "B": "3703.9",
            "C": "-87.868",
            "Tmin": "374.82",
            "Tmax": "560.79"
        },
        "Pa"
    ],
    "LiquidViscosityRPS": [
        {
            "eqno": "13",
            "A": "1.4201",
            "B": "-0.037098",
            "C": "0.000035218",
            "Tmin": "267.95",
            "Tmax": "436.42"
        },
        "Pa.s"
    ],
    "COSTALDVolume": [
        "0.285694",
        "m3/kmol"
    ],
    "DiameterLJ": [
        "7.336263E-10",
        "m"
    ],
    "EnergyLJ": [
        "195.7901",
        "K"
    ],
    "RacketParameter": [
        "0.254",
        "_"
    ],
    "FullerVolume": [
        "94.3",
        "_"
    ],
    "Parachor": [
        "0.0372",
        "kg0.25.m3/s0.5/kmol"
    ],
    "SpecificGravity": [
        "0.95962",
        "_"
    ],
    "Charge": [
        "0",
        "_"
    ],
    "CostaldAcentricFactor": [
        "0.683",
        "_"
    ],
    "WilsonVolume": [
        "0.0924567",
        "m3/kmol"
    ],
    "ChaoSeaderAcentricFactor": [
        "0.683",
        "_"
    ],
    "ChaoSeaderSolubilityParameter": [
        "20262.7",
        "J0.5/m1.5"
    ],
    "ChaoSeaderLiquidVolume": [
        "0.0924567",
        "m3/kmol"
    ],
    "RadiusOfGyration": [
        "3.61E-10",
        "m"
    ],
    "VanDerWaalsVolume": [
        "0.05365",
        "m3/kmol"
    ],
    "VanDerWaalsArea": [
        "7.88E+08",
        "m2/kmol"
    ],
    "MatthiasCopemanC1": [
        "1.34915",
        "_"
    ],
    "SolidDensity": [
        {
            "eqno": "2",
            "A": "14.238",
            "B": "-0.0069956",
            "Tmin": "90.15",
            "Tmax": "267.95"
        },
        "kmol/m3"
    ],
    "SurfaceTension": [
        {
            "eqno": "16",
            "A": "-0.0076127",
            "B": "373.93",
            "C": "-6.0915",
            "D": "0.0084349",
            "E": "-0.000011979",
            "Tmin": "267.95",
            "Tmax": "615.7"
        },
        "N/m"
    ],
    "MatthiasCopemanC2": [
        "0",
        "_"
    ],
    "UniquacR": [
        "3.5512",
        "_"
    ],
    "UniquacQ": [
        "3.152",
        "_"
    ],
    "ApiSrkS2": [
        "0.000612",
        "_"
    ],
    "MatthiasCopemanC3": [
        "0",
        "_"
    ],
    "SolidHeatCapacityCp": [
        {
            "eqno": "100",
            "A": "-1354100",
            "B": "26070",
            "C": "-174.59",
            "D": "0.51718",
            "E": "-0.00056018",
            "Tmin": "150",
            "Tmax": "298.15"
        },
        "J/kmol/K"
    ],
    "UniquacQP": [
        "2.684",
        "_"
    ],
    "ApiSrkS1": [
        "0.169684",
        "_"
    ]
}