{
    "CAS": "107-13-1",
    "LibraryIndex": "1774",
    "CompoundID": "Acrylonitrile",
    "StructureFormula": "CH2CHCN",
    "Family": "38",
    "CriticalTemperature": [
        "535",
        "K"
    ],
    "CriticalPressure": [
        "4480000",
        "Pa"
    ],
    "CriticalVolume": [
        "0.212",
        "m3/kmol"
    ],
    "CriticalCompressibility": [
        "0.214",
        "_"
    ],
    "NormalBoilingPointTemperature": [
        "350.5",
        "K"
    ],
    "NormalMeltingPointTemperature": [
        "189.63",
        "K"
    ],
    "TriplePointTemperature": [
        "189.63",
        "K"
    ],
    "TriplePointPressure": [
        "3.68289",
        "Pa"
    ],
    "MolecularWeight": [
        "53.0626",
        "kg/kmol"
    ],
    "LiquidVolumeAtNormalBoilingPoint": [
        "0.0662367",
        "m3/kmol"
    ],
    "AcentricityFactor": [
        "0.349801",
        "_"
    ],
    "SolubilityParameter": [
        "21560",
        "J0.5/m1.5"
    ],
    "DipoleMoment": [
        "1.29E-29",
        "Coulomb.m"
    ],
    "HeatOfFormation": [
        "1.837E+08",
        "J/kmol"
    ],
    "GibbsEnergyOfFormation": [
        "1.937E+08",
        "J/kmol"
    ],
    "AbsEntropy": [
        "275300",
        "J/kmol/K"
    ],
    "HeatOfFusionAtMeltingPoint": [
        "6230000",
        "J/kmol"
    ],
    "HeatOfCombustion": [
        "-1.69E+09",
        "J/kmol"
    ],
    "LiquidDensity": [
        {
            "eqno": "105",
            "A": "1.0816",
            "B": "0.2293",
            "C": "535",
            "D": "0.28939",
            "Tmin": "189.63",
            "Tmax": "535"
        },
        "kmol/m3"
    ],
    "VaporPressure": [
        {
            "eqno": "101",
            "A": "74.54771",
            "B": "-6259.727",
            "C": "-7.785577",
            "D": "4.08032E-06",
            "E": "2",
            "Tmin": "189.63",
            "Tmax": "535"
        },
        "Pa"
    ],
    "HeatOfVaporization": [
        {
            "eqno": "106",
            "A": "5.224752E+07",
            "B": "0.877802",
            "C": "-0.432396",
            "D": "-0.672186",
            "E": "0.607598",
            "Tmin": "189.63",
            "Tmax": "535"
        },
        "J/kmol"
    ],
    "LiquidHeatCapacityCp": [
        {
            "eqno": "16",
            "A": "83847",
            "B": "240.59",
            "C": "6.8887",
            "D": "0.0095277",
            "E": "-0.0000046046",
            "Tmin": "189.63",
            "Tmax": "400"
        },
        "J/kmol/K"
    ],
    "IdealGasHeatCapacityCp": [
        {
            "eqno": "16",
            "A": "42651",
            "B": "-533.04",
            "C": "11.728",
            "D": "0.00013096",
            "E": "-6.2176E-08",
            "Tmin": "200",
            "Tmax": "1500"
        },
        "J/kmol/K"
    ],
    "SecondVirialCoefficient": [
        {
            "eqno": "104",
            "A": "0.16669",
            "B": "-180.08",
            "C": "-27.078",
            "D": "1693.8",
            "E": "-10134",
            "Tmin": "267.5",
            "Tmax": "2000"
        },
        "m3/kmol"
    ],
    "LiquidViscosity": [
        {
            "eqno": "101",
            "A": "-0.5429",
            "B": "318.29",
            "C": "-1.481",
            "D": "-8.3759E-07",
            "E": "2",
            "Tmin": "220",
            "Tmax": "350.5"
        },
        "Pa.s"
    ],
    "VaporViscosity": [
        {
            "eqno": "102",
            "A": "4.616E-08",
            "B": "0.90278",
            "C": "67.424",
            "D": "-1672.6",
            "Tmin": "189.63",
            "Tmax": "1000"
        },
        "Pa.s"
    ],
    "LiquidThermalConductivity": [
        {
            "eqno": "16",
            "A": "-0.15669",
            "B": "19.22",
            "C": "-1.0721",
            "D": "0.00025871",
            "E": "-0.0000022582",
            "Tmin": "189.63",
            "Tmax": "350.5"
        },
        "W/m/K"
    ],
    "VaporThermalConductivity": [
        {
            "eqno": "102",
            "A": "0.0012317",
            "B": "1.2472",
            "C": "60863",
            "D": "-1968600",
            "Tmin": "350.5",
            "Tmax": "990.5"
        },
        "W/m/K"
    ],
    "RPPHeatCapacityCp": [
        {
            "eqno": "4",
            "A": "10676.73",
            "B": "220.6432",
            "C": "-0.156498",
            "D": "0.0000460366",
            "Tmin": "200",
            "Tmax": "1200"
        },
        "J/kmol/K"
    ],
    "RelativeStaticPermittivity": [
        {
            "eqno": "120",
            "A": "-18.507",
            "B": "-10000",
            "C": "-99",
            "Tmin": "275",
            "Tmax": "445"
        },
        "_"
    ],
    "AntoineVaporPressure": [
        {
            "eqno": "10",
            "A": "23.64",
            "B": "4865.9",
            "C": "50.629",
            "Tmin": "323.15",
            "Tmax": "480.47"
        },
        "Pa"
    ],
    "LiquidViscosityRPS": [
        {
            "eqno": "13",
            "A": "-3.2702",
            "B": "-0.022461",
            "C": "0.000022239",
            "Tmin": "220",
            "Tmax": "350.5"
        },
        "Pa.s"
    ],
    "COSTALDVolume": [
        "0.186019",
        "m3/kmol"
    ],
    "DiameterLJ": [
        "7.077183E-10",
        "m"
    ],
    "EnergyLJ": [
        "135.7552",
        "K"
    ],
    "RacketParameter": [
        "0.259865",
        "_"
    ],
    "FullerVolume": [
        "59.17",
        "_"
    ],
    "Parachor": [
        "0.0272",
        "kg0.25.m3/s0.5/kmol"
    ],
    "SpecificGravity": [
        "0.805",
        "_"
    ],
    "Charge": [
        "0",
        "_"
    ],
    "CostaldAcentricFactor": [
        "0.349801",
        "_"
    ],
    "WilsonVolume": [
        "0.0662367",
        "m3/kmol"
    ],
    "ChaoSeaderAcentricFactor": [
        "0.349801",
        "_"
    ],
    "ChaoSeaderSolubilityParameter": [
        "21555.4",
        "J0.5/m1.5"
    ],
    "ChaoSeaderLiquidVolume": [
        "0.0662367",
        "m3/kmol"
    ],
    "RadiusOfGyration": [
        "2.464E-10",
        "m"
    ],
    "VanDerWaalsVolume": [
        "0.0351",
        "m3/kmol"
    ],
    "VanDerWaalsArea": [
        "5.13E+08",
        "m2/kmol"
    ],
    "MatthiasCopemanC1": [
        "1.2803",
        "_"
    ],
    "SolidDensity": [
        {
            "eqno": "2",
            "A": "21.906",
            "B": "-0.012833",
            "Tmin": "75.85",
            "Tmax": "189.63"
        },
        "kmol/m3"
    ],
    "SurfaceTension": [
        {
            "eqno": "16",
            "A": "-0.031468",
            "B": "13.152",
            "C": "-2.5363",
            "D": "-0.00042782",
            "E": "-0.0000025175",
            "Tmin": "189.63",
            "Tmax": "535"
        },
        "N/m"
    ],
    "MatthiasCopemanC2": [
        "-2.1648",
        "_"
    ],
    "UniquacR": [
        "2.31",
        "_"
    ],
    "UniquacQ": [
        "2.05",
        "_"
    ],
    "ApiSrkS2": [
        "0.003516",
        "_"
    ],
    "MatthiasCopemanC3": [
        "3.1533",
        "_"
    ],
    "SolidHeatCapacityCp": [
        {
            "eqno": "100",
            "A": "378880",
            "B": "-12940",
            "C": "173.11",
            "D": "-0.95095",
            "E": "0.001872",
            "Tmin": "109.32",
            "Tmax": "183.69"
        },
        "J/kmol/K"
    ],
    "UniquacQP": [
        "0.92",
        "_"
    ],
    "ApiSrkS1": [
        "0.763226",
        "_"
    ]
}