{
    "CAS": "107-12-0",
    "LibraryIndex": "1773",
    "CompoundID": "Propionitrile",
    "StructureFormula": "CH3CH2CN",
    "Family": "38",
    "CriticalTemperature": [
        "564.4",
        "K"
    ],
    "CriticalPressure": [
        "4180000",
        "Pa"
    ],
    "CriticalVolume": [
        "0.229",
        "m3/kmol"
    ],
    "CriticalCompressibility": [
        "0.204",
        "_"
    ],
    "NormalBoilingPointTemperature": [
        "370.5",
        "K"
    ],
    "NormalMeltingPointTemperature": [
        "180.26",
        "K"
    ],
    "TriplePointTemperature": [
        "180.26",
        "K"
    ],
    "TriplePointPressure": [
        "0.169356",
        "Pa"
    ],
    "MolecularWeight": [
        "55.0785",
        "kg/kmol"
    ],
    "LiquidVolumeAtNormalBoilingPoint": [
        "0.0708565",
        "m3/kmol"
    ],
    "AcentricityFactor": [
        "0.324267",
        "_"
    ],
    "SolubilityParameter": [
        "21760",
        "J0.5/m1.5"
    ],
    "DipoleMoment": [
        "1.34E-29",
        "Coulomb.m"
    ],
    "HeatOfFormation": [
        "5.15E+07",
        "J/kmol"
    ],
    "GibbsEnergyOfFormation": [
        "9.74949E+07",
        "J/kmol"
    ],
    "AbsEntropy": [
        "286600",
        "J/kmol/K"
    ],
    "HeatOfFusionAtMeltingPoint": [
        "5029170",
        "J/kmol"
    ],
    "HeatOfCombustion": [
        "-1.8007E+09",
        "J/kmol"
    ],
    "LiquidDensity": [
        {
            "eqno": "105",
            "A": "0.90359",
            "B": "0.2211",
            "C": "564.4",
            "D": "0.26246",
            "Tmin": "180.26",
            "Tmax": "564.4"
        },
        "kmol/m3"
    ],
    "VaporPressure": [
        {
            "eqno": "101",
            "A": "81.601",
            "B": "-6646.8",
            "C": "-8.9882",
            "D": "0.0000074443",
            "E": "2",
            "Tmin": "180.26",
            "Tmax": "564.4"
        },
        "Pa"
    ],
    "HeatOfVaporization": [
        {
            "eqno": "106",
            "A": "3.633259E+07",
            "B": "-2.107222",
            "C": "8.013128",
            "D": "-9.747514",
            "E": "4.114254",
            "Tmin": "180.26",
            "Tmax": "564.4"
        },
        "J/kmol"
    ],
    "LiquidHeatCapacityCp": [
        {
            "eqno": "16",
            "A": "105770",
            "B": "154.89",
            "C": "4.5843",
            "D": "0.018329",
            "E": "-0.000011984",
            "Tmin": "180.26",
            "Tmax": "370.5"
        },
        "J/kmol/K"
    ],
    "IdealGasHeatCapacityCp": [
        {
            "eqno": "16",
            "A": "47947",
            "B": "-544.83",
            "C": "11.91",
            "D": "0.00026005",
            "E": "-9.1233E-08",
            "Tmin": "200",
            "Tmax": "1500"
        },
        "J/kmol/K"
    ],
    "SecondVirialCoefficient": [
        {
            "eqno": "104",
            "A": "0.088354",
            "B": "-183.35",
            "C": "-90.512",
            "D": "-32289",
            "E": "-55646",
            "Tmin": "338.64",
            "Tmax": "1500"
        },
        "m3/kmol"
    ],
    "LiquidViscosity": [
        {
            "eqno": "101",
            "A": "-8.0958",
            "B": "775.57",
            "C": "-0.393",
            "D": "-7.9624E-07",
            "E": "2",
            "Tmin": "250",
            "Tmax": "370.5"
        },
        "Pa.s"
    ],
    "VaporViscosity": [
        {
            "eqno": "102",
            "A": "9.8851E-08",
            "B": "0.79377",
            "C": "155.28",
            "D": "-11568",
            "Tmin": "180.26",
            "Tmax": "1000"
        },
        "Pa.s"
    ],
    "LiquidThermalConductivity": [
        {
            "eqno": "16",
            "A": "0.13846",
            "B": "2645.2",
            "C": "-37.177",
            "D": "0.15078",
            "E": "-0.00022598",
            "Tmin": "180.26",
            "Tmax": "413.15"
        },
        "W/m/K"
    ],
    "VaporThermalConductivity": [
        {
            "eqno": "102",
            "A": "0.00048871",
            "B": "1.327",
            "C": "43042",
            "D": "-3226700",
            "Tmin": "370.5",
            "Tmax": "990.5"
        },
        "W/m/K"
    ],
    "RPPHeatCapacityCp": [
        {
            "eqno": "4",
            "A": "17680",
            "B": "218.52",
            "C": "-0.10368",
            "D": "0.000017753",
            "Tmin": "200",
            "Tmax": "1500"
        },
        "J/kmol/K"
    ],
    "RelativeStaticPermittivity": [
        {
            "eqno": "120",
            "A": "-19.90771",
            "B": "-10000",
            "C": "-83.1",
            "Tmin": "274.15",
            "Tmax": "444.15"
        },
        "_"
    ],
    "AntoineVaporPressure": [
        {
            "eqno": "10",
            "A": "21.537",
            "B": "3368.2",
            "C": "-34.373",
            "Tmin": "342",
            "Tmax": "503.75"
        },
        "Pa"
    ],
    "LiquidViscosityRPS": [
        {
            "eqno": "12",
            "A": "-4.9156",
            "B": "-0.0096282",
            "Tmin": "250",
            "Tmax": "370.5"
        },
        "Pa.s"
    ],
    "COSTALDVolume": [
        "0.204617",
        "m3/kmol"
    ],
    "DiameterLJ": [
        "7.690725E-10",
        "m"
    ],
    "EnergyLJ": [
        "120.5504",
        "K"
    ],
    "RacketParameter": [
        "0.204",
        "_"
    ],
    "FullerVolume": [
        "63.79",
        "_"
    ],
    "Parachor": [
        "0.0289561",
        "kg0.25.m3/s0.5/kmol"
    ],
    "SpecificGravity": [
        "0.786785",
        "_"
    ],
    "Charge": [
        "0",
        "_"
    ],
    "CostaldAcentricFactor": [
        "0.324267",
        "_"
    ],
    "WilsonVolume": [
        "0.0708565",
        "m3/kmol"
    ],
    "ChaoSeaderAcentricFactor": [
        "0.324267",
        "_"
    ],
    "ChaoSeaderSolubilityParameter": [
        "21760",
        "J0.5/m1.5"
    ],
    "ChaoSeaderLiquidVolume": [
        "0.0708565",
        "m3/kmol"
    ],
    "RadiusOfGyration": [
        "2.652E-10",
        "m"
    ],
    "VanDerWaalsVolume": [
        "0.0386",
        "m3/kmol"
    ],
    "VanDerWaalsArea": [
        "5.66E+08",
        "m2/kmol"
    ],
    "MatthiasCopemanC1": [
        "1.2586",
        "_"
    ],
    "SolidDensity": [
        {
            "eqno": "2",
            "A": "20.345",
            "B": "-0.012638",
            "C": "0",
            "D": "0",
            "E": "0",
            "Tmin": "72.1",
            "Tmax": "180.26"
        },
        "kmol/m3"
    ],
    "SurfaceTension": [
        {
            "eqno": "16",
            "A": "-0.018019",
            "B": "28.207",
            "C": "-2.8898",
            "D": "0.00012339",
            "E": "-0.0000039362",
            "Tmin": "180.26",
            "Tmax": "564.4"
        },
        "N/m"
    ],
    "MatthiasCopemanC2": [
        "-2.1562",
        "_"
    ],
    "UniquacR": [
        "2.5445",
        "_"
    ],
    "UniquacQ": [
        "2.264",
        "_"
    ],
    "ApiSrkS2": [
        "0.141244",
        "_"
    ],
    "MatthiasCopemanC3": [
        "3.5161",
        "_"
    ],
    "SolidHeatCapacityCp": [
        {
            "eqno": "100",
            "A": "-14960",
            "B": "1312.1",
            "C": "-7.69",
            "D": "0.017079",
            "E": "0.000015678",
            "Tmin": "15",
            "Tmax": "170"
        },
        "J/kmol/K"
    ],
    "UniquacQP": [
        "4.936",
        "_"
    ],
    "ApiSrkS1": [
        "0.529899",
        "_"
    ]
}