{
    "CAS": "107-83-5",
    "LibraryIndex": "12",
    "CompoundID": "2-methylpentane",
    "StructureFormula": "CH3CH2CH2CH(CH3)2",
    "Family": "2",
    "CriticalTemperature": [
        "497.5",
        "K"
    ],
    "CriticalPressure": [
        "3010000",
        "Pa"
    ],
    "CriticalVolume": [
        "0.3667",
        "m3/kmol"
    ],
    "CriticalCompressibility": [
        "0.267",
        "_"
    ],
    "NormalBoilingPointTemperature": [
        "333.4",
        "K"
    ],
    "NormalMeltingPointTemperature": [
        "119.55",
        "K"
    ],
    "TriplePointTemperature": [
        "119.55",
        "K"
    ],
    "TriplePointPressure": [
        "0.0000206558",
        "Pa"
    ],
    "MolecularWeight": [
        "86.177",
        "kg/kmol"
    ],
    "LiquidVolumeAtNormalBoilingPoint": [
        "0.13289",
        "m3/kmol"
    ],
    "AcentricityFactor": [
        "0.278",
        "_"
    ],
    "SolubilityParameter": [
        "14400",
        "J0.5/m1.5"
    ],
    "DipoleMoment": [
        "0",
        "Coulomb.m"
    ],
    "HeatOfFormation": [
        "-1.7455E+08",
        "J/kmol"
    ],
    "GibbsEnergyOfFormation": [
        "-5338000",
        "J/kmol"
    ],
    "AbsEntropy": [
        "380890",
        "J/kmol/K"
    ],
    "HeatOfFusionAtMeltingPoint": [
        "6268000",
        "J/kmol"
    ],
    "HeatOfCombustion": [
        "-3.84915E+09",
        "J/kmol"
    ],
    "LiquidDensity": [
        {
            "eqno": "105",
            "A": "0.657",
            "B": "0.25467",
            "C": "497.71",
            "D": "0.26808",
            "Tmin": "119.55",
            "Tmax": "497.7"
        },
        "kmol/m3"
    ],
    "VaporPressure": [
        {
            "eqno": "101",
            "A": "77.6873",
            "B": "-5802.911",
            "C": "-8.543267",
            "D": "7.871718E-06",
            "E": "2",
            "Tmin": "119.55",
            "Tmax": "497.7"
        },
        "Pa"
    ],
    "HeatOfVaporization": [
        {
            "eqno": "106",
            "A": "4.724E+07",
            "B": "0.784961",
            "C": "-0.571271",
            "D": "0.114935",
            "E": "0.0796185",
            "Tmin": "119.55",
            "Tmax": "477.8"
        },
        "J/kmol"
    ],
    "LiquidHeatCapacityCp": [
        {
            "eqno": "16",
            "A": "137510",
            "B": "-55.266",
            "C": "8.2006",
            "D": "0.013273",
            "E": "-0.00001165",
            "Tmin": "103.56",
            "Tmax": "333.41"
        },
        "J/kmol/K"
    ],
    "IdealGasHeatCapacityCp": [
        {
            "eqno": "16",
            "A": "70761",
            "B": "-504.8",
            "C": "12.795",
            "D": "0.00029839",
            "E": "-9.4564E-08",
            "Tmin": "200",
            "Tmax": "1500"
        },
        "J/kmol/K"
    ],
    "SecondVirialCoefficient": [
        {
            "eqno": "104",
            "A": "0.20379",
            "B": "-202.65",
            "C": "-31.838",
            "D": "492.86",
            "E": "-3834.6",
            "Tmin": "248.73",
            "Tmax": "1989.8"
        },
        "m3/kmol"
    ],
    "LiquidViscosity": [
        {
            "eqno": "101",
            "A": "-12.416",
            "B": "938.41",
            "C": "0.18259",
            "D": "4.2586E-07",
            "E": "2",
            "Tmin": "119.55",
            "Tmax": "333.41"
        },
        "Pa.s"
    ],
    "VaporViscosity": [
        {
            "eqno": "102",
            "A": "0.0000020458",
            "B": "0.38326",
            "C": "542.64",
            "D": "-1147.6",
            "Tmin": "119.55",
            "Tmax": "1000"
        },
        "Pa.s"
    ],
    "LiquidThermalConductivity": [
        {
            "eqno": "16",
            "A": "-0.099248",
            "B": "3.6931",
            "C": "-1.2881",
            "D": "-0.00063949",
            "E": "-0.0000011122",
            "Tmin": "119.55",
            "Tmax": "389.25"
        },
        "W/m/K"
    ],
    "VaporThermalConductivity": [
        {
            "eqno": "102",
            "A": "0.000056887",
            "B": "1.0953",
            "C": "-66.761",
            "D": "139530",
            "Tmin": "333.41",
            "Tmax": "1000"
        },
        "W/m/K"
    ],
    "RPPHeatCapacityCp": [
        {
            "eqno": "100",
            "A": "17427",
            "B": "385.95",
            "C": "0.25974",
            "D": "-0.0005678",
            "E": "2.4129E-07",
            "Tmin": "200",
            "Tmax": "1000"
        },
        "J/kmol/K"
    ],
    "RelativeStaticPermittivity": [
        {
            "eqno": "120",
            "A": "-19.94714",
            "B": "-9100",
            "C": "-54.6",
            "Tmin": "274.15",
            "Tmax": "444.15"
        },
        "_"
    ],
    "AntoineVaporPressure": [
        {
            "eqno": "10",
            "A": "20.737",
            "B": "2653.5",
            "C": "-45.343",
            "Tmin": "298.67",
            "Tmax": "437.99"
        },
        "Pa"
    ],
    "LiquidViscosityRPS": [
        {
            "eqno": "13",
            "A": "2.1171",
            "B": "-0.062164",
            "C": "0.00009219",
            "Tmin": "119.55",
            "Tmax": "333.41"
        },
        "Pa.s"
    ],
    "COSTALDVolume": [
        "0.3677",
        "m3/kmol"
    ],
    "DiameterLJ": [
        "6.51431E-10",
        "m"
    ],
    "EnergyLJ": [
        "279.9927",
        "K"
    ],
    "RacketParameter": [
        "0.2581",
        "_"
    ],
    "FullerVolume": [
        "127.74",
        "_"
    ],
    "Parachor": [
        "0.048",
        "kg0.25.m3/s0.5/kmol"
    ],
    "SpecificGravity": [
        "0.656507",
        "_"
    ],
    "Charge": [
        "0",
        "_"
    ],
    "CostaldAcentricFactor": [
        "0.2791",
        "_"
    ],
    "WilsonVolume": [
        "0.132931",
        "m3/kmol"
    ],
    "ChaoSeaderAcentricFactor": [
        "0.2791",
        "_"
    ],
    "ChaoSeaderSolubilityParameter": [
        "14417.6",
        "J0.5/m1.5"
    ],
    "ChaoSeaderLiquidVolume": [
        "0.132931",
        "m3/kmol"
    ],
    "RadiusOfGyration": [
        "3.784E-10",
        "m"
    ],
    "VanDerWaalsVolume": [
        "0.06825",
        "m3/kmol"
    ],
    "VanDerWaalsArea": [
        "9.63E+08",
        "m2/kmol"
    ],
    "MatthiasCopemanC1": [
        "0.95879",
        "_"
    ],
    "SolidDensity": [
        {
            "eqno": "2",
            "A": "11.67",
            "B": "-0.010749",
            "Tmin": "47.82",
            "Tmax": "119.55"
        },
        "kmol/m3"
    ],
    "SurfaceTension": [
        {
            "eqno": "16",
            "A": "-0.015522",
            "B": "7.9529",
            "C": "-2.8734",
            "D": "-0.0008781",
            "E": "-0.0000036183",
            "Tmin": "119.55",
            "Tmax": "477.8"
        },
        "N/m"
    ],
    "MatthiasCopemanC2": [
        "-0.45339",
        "_"
    ],
    "UniquacR": [
        "4.499",
        "_"
    ],
    "UniquacQ": [
        "3.852",
        "_"
    ],
    "ApiSrkS2": [
        "-0.003898",
        "_"
    ],
    "MatthiasCopemanC3": [
        "0.85782",
        "_"
    ],
    "SolidHeatCapacityCp": [
        {
            "eqno": "100",
            "A": "-16692",
            "B": "1658.2",
            "C": "-10.279",
            "D": "0.040384",
            "E": "-0.000049521",
            "Tmin": "18",
            "Tmax": "119.53"
        },
        "J/kmol/K"
    ],
    "UniquacQP": [
        "3.856",
        "_"
    ],
    "ApiSrkS1": [
        "0.745244",
        "_"
    ]
}