{
    "CAS": "107-31-3",
    "LibraryIndex": "1301",
    "CompoundID": "Methyl formate",
    "StructureFormula": "HCOOCH3",
    "Family": "55",
    "CriticalTemperature": [
        "487.2",
        "K"
    ],
    "CriticalPressure": [
        "6000000",
        "Pa"
    ],
    "CriticalVolume": [
        "0.172",
        "m3/kmol"
    ],
    "CriticalCompressibility": [
        "0.255",
        "_"
    ],
    "NormalBoilingPointTemperature": [
        "304.9",
        "K"
    ],
    "NormalMeltingPointTemperature": [
        "174.15",
        "K"
    ],
    "TriplePointTemperature": [
        "174.15",
        "K"
    ],
    "TriplePointPressure": [
        "6.88085",
        "Pa"
    ],
    "MolecularWeight": [
        "60.053",
        "kg/kmol"
    ],
    "LiquidVolumeAtNormalBoilingPoint": [
        "0.06214",
        "m3/kmol"
    ],
    "AcentricityFactor": [
        "0.253",
        "_"
    ],
    "SolubilityParameter": [
        "20500",
        "J0.5/m1.5"
    ],
    "DipoleMoment": [
        "5.9E-30",
        "Coulomb.m"
    ],
    "HeatOfFormation": [
        "-3.524E+08",
        "J/kmol"
    ],
    "GibbsEnergyOfFormation": [
        "-2.95E+08",
        "J/kmol"
    ],
    "AbsEntropy": [
        "285200",
        "J/kmol/K"
    ],
    "HeatOfFusionAtMeltingPoint": [
        "7531000",
        "J/kmol"
    ],
    "HeatOfCombustion": [
        "-8.924E+08",
        "J/kmol"
    ],
    "LiquidDensity": [
        {
            "eqno": "105",
            "A": "1.213",
            "B": "0.23619",
            "C": "487.2",
            "D": "0.24621",
            "Tmin": "174.15",
            "Tmax": "487.15"
        },
        "kmol/m3"
    ],
    "VaporPressure": [
        {
            "eqno": "101",
            "A": "70.6458",
            "B": "-5401.751",
            "C": "-7.334787",
            "D": "5.934343E-06",
            "E": "2",
            "Tmin": "174.15",
            "Tmax": "487.2"
        },
        "Pa"
    ],
    "HeatOfVaporization": [
        {
            "eqno": "106",
            "A": "7.0578E+07",
            "B": "3.7855",
            "C": "-9.0874",
            "D": "9.6043",
            "E": "-3.7868",
            "Tmin": "174.15",
            "Tmax": "487.15"
        },
        "J/kmol"
    ],
    "LiquidHeatCapacityCp": [
        {
            "eqno": "16",
            "A": "97064",
            "B": "3377.4",
            "C": "-42.373",
            "D": "0.22648",
            "E": "-0.00029763",
            "Tmin": "174.15",
            "Tmax": "304.9"
        },
        "J/kmol/K"
    ],
    "IdealGasHeatCapacityCp": [
        {
            "eqno": "16",
            "A": "41319",
            "B": "-570.15",
            "C": "12.038",
            "D": "-0.000034216",
            "E": "-2.7109E-11",
            "Tmin": "250",
            "Tmax": "1500"
        },
        "J/kmol/K"
    ],
    "SecondVirialCoefficient": [
        {
            "eqno": "104",
            "A": "0.095846",
            "B": "-103.82",
            "C": "-15.924",
            "D": "-865.24",
            "E": "-816.67",
            "Tmin": "243.6",
            "Tmax": "1948.8"
        },
        "m3/kmol"
    ],
    "LiquidViscosity": [
        {
            "eqno": "101",
            "A": "-9.949",
            "B": "1214.4",
            "C": "-0.53562",
            "D": "0.000010346",
            "E": "2",
            "Tmin": "250",
            "Tmax": "304.9"
        },
        "Pa.s"
    ],
    "VaporViscosity": [
        {
            "eqno": "102",
            "A": "0.0000069776",
            "B": "0.31537",
            "C": "1034.6",
            "D": "13.293",
            "Tmin": "174.15",
            "Tmax": "1000"
        },
        "Pa.s"
    ],
    "LiquidThermalConductivity": [
        {
            "eqno": "16",
            "A": "0.0090363",
            "B": "23.594",
            "C": "-1.5627",
            "D": "0.00089283",
            "E": "-0.0000058101",
            "Tmin": "146.16",
            "Tmax": "386.16"
        },
        "W/m/K"
    ],
    "VaporThermalConductivity": [
        {
            "eqno": "102",
            "A": "-817050",
            "B": "-0.23016",
            "C": "2.5314E+08",
            "D": "-1.5205E+12",
            "Tmin": "300",
            "Tmax": "1000"
        },
        "W/m/K"
    ],
    "RPPHeatCapacityCp": [
        {
            "eqno": "100",
            "A": "18932",
            "B": "149.77",
            "C": "0.096448",
            "D": "-0.00024287",
            "E": "1.1158E-07",
            "Tmin": "250",
            "Tmax": "1000"
        },
        "J/kmol/K"
    ],
    "RelativeStaticPermittivity": [
        {
            "eqno": "120",
            "A": "-7.378946",
            "B": "-4250",
            "C": "-25.5",
            "Tmin": "274.15",
            "Tmax": "444.15"
        },
        "_"
    ],
    "AntoineVaporPressure": [
        {
            "eqno": "10",
            "A": "21.436",
            "B": "2622.4",
            "C": "-40.294",
            "Tmin": "293.15",
            "Tmax": "437.77"
        },
        "Pa"
    ],
    "LiquidViscosityRPS": [
        {
            "eqno": "13",
            "A": "1.0549",
            "B": "-0.05168",
            "C": "0.000071381",
            "Tmin": "250",
            "Tmax": "304.9"
        },
        "Pa.s"
    ],
    "COSTALDVolume": [
        "0.16931",
        "m3/kmol"
    ],
    "DiameterLJ": [
        "5.348593E-10",
        "m"
    ],
    "EnergyLJ": [
        "232.362",
        "K"
    ],
    "RacketParameter": [
        "0.281",
        "_"
    ],
    "FullerVolume": [
        "53.26",
        "_"
    ],
    "Parachor": [
        "0.0245",
        "kg0.25.m3/s0.5/kmol"
    ],
    "SpecificGravity": [
        "0.981244",
        "_"
    ],
    "Charge": [
        "0",
        "_"
    ],
    "CostaldAcentricFactor": [
        "0.25698",
        "_"
    ],
    "WilsonVolume": [
        "0.0620841",
        "m3/kmol"
    ],
    "ChaoSeaderAcentricFactor": [
        "0.257",
        "_"
    ],
    "ChaoSeaderSolubilityParameter": [
        "20503.4",
        "J0.5/m1.5"
    ],
    "ChaoSeaderLiquidVolume": [
        "0.0620841",
        "m3/kmol"
    ],
    "RadiusOfGyration": [
        "2.387E-10",
        "m"
    ],
    "VanDerWaalsVolume": [
        "0.03251",
        "m3/kmol"
    ],
    "VanDerWaalsArea": [
        "5.09E+08",
        "m2/kmol"
    ],
    "MatthiasCopemanC1": [
        "0.86547",
        "_"
    ],
    "SolidDensity": [
        {
            "eqno": "2",
            "A": "23.868",
            "B": "-0.015242",
            "Tmin": "69.66",
            "Tmax": "174.15"
        },
        "kmol/m3"
    ],
    "SurfaceTension": [
        {
            "eqno": "16",
            "A": "-0.013259",
            "B": "47.144",
            "C": "-3.0417",
            "D": "0.001159",
            "E": "-0.0000083817",
            "Tmin": "174.15",
            "Tmax": "470.72"
        },
        "N/m"
    ],
    "MatthiasCopemanC2": [
        "-0.22908",
        "_"
    ],
    "UniquacR": [
        "2.1431",
        "_"
    ],
    "UniquacQ": [
        "2.036",
        "_"
    ],
    "ApiSrkS2": [
        "-0.002805",
        "_"
    ],
    "MatthiasCopemanC3": [
        "0.86272",
        "_"
    ],
    "SolidHeatCapacityCp": [
        {
            "eqno": "1",
            "A": "78860",
            "Tmin": "293",
            "Tmax": "5"
        },
        "J/kmol/K"
    ],
    "UniquacQP": [
        "0.96",
        "_"
    ],
    "ApiSrkS1": [
        "1.828343",
        "_"
    ]
}