{
    "CAS": "107-06-2",
    "LibraryIndex": "1523",
    "CompoundID": "1,2-dichloroethane",
    "StructureFormula": "CH2ClCH2Cl",
    "Family": "65",
    "CriticalTemperature": [
        "561",
        "K"
    ],
    "CriticalPressure": [
        "5400000",
        "Pa"
    ],
    "CriticalVolume": [
        "0.22",
        "m3/kmol"
    ],
    "CriticalCompressibility": [
        "0.255",
        "_"
    ],
    "NormalBoilingPointTemperature": [
        "356.66",
        "K"
    ],
    "NormalMeltingPointTemperature": [
        "237.49",
        "K"
    ],
    "TriplePointTemperature": [
        "237.49",
        "K"
    ],
    "TriplePointPressure": [
        "237.127",
        "Pa"
    ],
    "MolecularWeight": [
        "98.959",
        "kg/kmol"
    ],
    "LiquidVolumeAtNormalBoilingPoint": [
        "0.07945",
        "m3/kmol"
    ],
    "AcentricityFactor": [
        "0.286",
        "_"
    ],
    "SolubilityParameter": [
        "20260",
        "J0.5/m1.5"
    ],
    "DipoleMoment": [
        "4.8E-30",
        "Coulomb.m"
    ],
    "HeatOfFormation": [
        "-1.2979E+08",
        "J/kmol"
    ],
    "GibbsEnergyOfFormation": [
        "-7.3945E+07",
        "J/kmol"
    ],
    "AbsEntropy": [
        "308280",
        "J/kmol/K"
    ],
    "HeatOfFusionAtMeltingPoint": [
        "8830000",
        "J/kmol"
    ],
    "HeatOfCombustion": [
        "-1.105E+09",
        "J/kmol"
    ],
    "LiquidDensity": [
        {
            "eqno": "105",
            "A": "1.1942",
            "B": "0.27053",
            "C": "561.61",
            "D": "0.29157",
            "Tmin": "237.49",
            "Tmax": "561.6"
        },
        "kmol/m3"
    ],
    "VaporPressure": [
        {
            "eqno": "101",
            "A": "81.47902",
            "B": "-6503.169",
            "C": "-8.960273",
            "D": "7.32894E-06",
            "E": "2",
            "Tmin": "237.49",
            "Tmax": "561.6"
        },
        "Pa"
    ],
    "HeatOfVaporization": [
        {
            "eqno": "106",
            "A": "5.072427E+07",
            "B": "0.517321",
            "C": "0.205828",
            "D": "-0.637156",
            "E": "0.265499",
            "Tmin": "237.49",
            "Tmax": "544.54"
        },
        "J/kmol"
    ],
    "LiquidHeatCapacityCp": [
        {
            "eqno": "16",
            "A": "92757",
            "B": "224.15",
            "C": "8.5223",
            "D": "0.0025656",
            "E": "0.000005106",
            "Tmin": "237.49",
            "Tmax": "522.04"
        },
        "J/kmol/K"
    ],
    "IdealGasHeatCapacityCp": [
        {
            "eqno": "16",
            "A": "62073",
            "B": "-758.84",
            "C": "12.345",
            "D": "-0.0004196",
            "E": "0.0000001146",
            "Tmin": "200",
            "Tmax": "1500"
        },
        "J/kmol/K"
    ],
    "SecondVirialCoefficient": [
        {
            "eqno": "104",
            "A": "0.15478",
            "B": "-169.14",
            "C": "-26.602",
            "D": "737.05",
            "E": "-4862.1",
            "Tmin": "243",
            "Tmax": "1964"
        },
        "m3/kmol"
    ],
    "LiquidViscosity": [
        {
            "eqno": "101",
            "A": "25.747",
            "B": "-385.45",
            "C": "-5.5912",
            "D": "0.0000027937",
            "E": "2",
            "Tmin": "237.49",
            "Tmax": "544.26"
        },
        "Pa.s"
    ],
    "VaporViscosity": [
        {
            "eqno": "102",
            "A": "1.1983E-07",
            "B": "0.79504",
            "C": "20.791",
            "D": "14003",
            "Tmin": "237.49",
            "Tmax": "1000"
        },
        "Pa.s"
    ],
    "LiquidThermalConductivity": [
        {
            "eqno": "16",
            "A": "0.015945",
            "B": "-110.67",
            "C": "-0.74013",
            "D": "-0.0032664",
            "E": "-5.0786E-07",
            "Tmin": "244.26",
            "Tmax": "499.82"
        },
        "W/m/K"
    ],
    "VaporThermalConductivity": [
        {
            "eqno": "102",
            "A": "0.00023592",
            "B": "0.93945",
            "C": "1368.6",
            "D": "23794",
            "Tmin": "199.82",
            "Tmax": "1000"
        },
        "W/m/K"
    ],
    "RPPHeatCapacityCp": [
        {
            "eqno": "100",
            "A": "24860",
            "B": "192.87",
            "C": "-0.03359",
            "D": "-0.000094203",
            "E": "0.0000000513",
            "Tmin": "298",
            "Tmax": "1000"
        },
        "J/kmol/K"
    ],
    "RelativeStaticPermittivity": [
        {
            "eqno": "120",
            "A": "-8.970346",
            "B": "-5150",
            "C": "-30.9",
            "Tmin": "279.15",
            "Tmax": "449.15"
        },
        "_"
    ],
    "AntoineVaporPressure": [
        {
            "eqno": "10",
            "A": "21.473",
            "B": "3186",
            "C": "-36.407",
            "Tmin": "337.48",
            "Tmax": "499.82"
        },
        "Pa"
    ],
    "LiquidViscosityRPS": [
        {
            "eqno": "13",
            "A": "-1.994",
            "B": "-0.021914",
            "C": "0.000015517",
            "Tmin": "237.49",
            "Tmax": "544.26"
        },
        "Pa.s"
    ],
    "COSTALDVolume": [
        "0.231863",
        "m3/kmol"
    ],
    "DiameterLJ": [
        "5.805919E-10",
        "m"
    ],
    "EnergyLJ": [
        "267.5597",
        "K"
    ],
    "RacketParameter": [
        "0.281",
        "_"
    ],
    "FullerVolume": [
        "83.04",
        "_"
    ],
    "Parachor": [
        "0.0334",
        "kg0.25.m3/s0.5/kmol"
    ],
    "SpecificGravity": [
        "1.2604",
        "_"
    ],
    "Charge": [
        "0",
        "_"
    ],
    "CostaldAcentricFactor": [
        "0.2876",
        "_"
    ],
    "WilsonVolume": [
        "0.0794424",
        "m3/kmol"
    ],
    "ChaoSeaderAcentricFactor": [
        "0.2876",
        "_"
    ],
    "ChaoSeaderSolubilityParameter": [
        "20249.5",
        "J0.5/m1.5"
    ],
    "ChaoSeaderLiquidVolume": [
        "0.0794424",
        "m3/kmol"
    ],
    "RadiusOfGyration": [
        "2.827E-10",
        "m"
    ],
    "VanDerWaalsVolume": [
        "0.0437",
        "m3/kmol"
    ],
    "VanDerWaalsArea": [
        "6.3E+08",
        "m2/kmol"
    ],
    "MatthiasCopemanC1": [
        "0.98897",
        "_"
    ],
    "SolidDensity": [
        {
            "eqno": "2",
            "A": "14.854",
            "B": "2.2061E-09",
            "Tmin": "223.15",
            "Tmax": "232.65"
        },
        "kmol/m3"
    ],
    "SurfaceTension": [
        {
            "eqno": "16",
            "A": "-0.022707",
            "B": "74.78",
            "C": "-2.954",
            "D": "0.00056054",
            "E": "-0.0000041954",
            "Tmin": "237.49",
            "Tmax": "544.54"
        },
        "N/m"
    ],
    "MatthiasCopemanC2": [
        "-0.73831",
        "_"
    ],
    "UniquacR": [
        "2.88",
        "_"
    ],
    "UniquacQ": [
        "2.52",
        "_"
    ],
    "ApiSrkS2": [
        "-0.002805",
        "_"
    ],
    "MatthiasCopemanC3": [
        "1.2388",
        "_"
    ],
    "SolidHeatCapacityCp": [
        {
            "eqno": "100",
            "A": "32947",
            "B": "-881.85",
            "C": "32.363",
            "D": "-0.29817",
            "E": "0.00092602",
            "Tmin": "40.69",
            "Tmax": "179.69"
        },
        "J/kmol/K"
    ],
    "UniquacQP": [
        "0.96",
        "_"
    ],
    "ApiSrkS1": [
        "1.828343",
        "_"
    ]
}