{
    "CAS": "107-21-1",
    "LibraryIndex": "1201",
    "CompoundID": "Ethylene glycol",
    "StructureFormula": "HOCH2CH2OH",
    "Family": "49",
    "CriticalTemperature": [
        "719",
        "K"
    ],
    "CriticalPressure": [
        "8200000",
        "Pa"
    ],
    "CriticalVolume": [
        "0.191",
        "m3/kmol"
    ],
    "CriticalCompressibility": [
        "0.262",
        "_"
    ],
    "NormalBoilingPointTemperature": [
        "470.45",
        "K"
    ],
    "NormalMeltingPointTemperature": [
        "260.15",
        "K"
    ],
    "TriplePointTemperature": [
        "260.15",
        "K"
    ],
    "TriplePointPressure": [
        "0.21922",
        "Pa"
    ],
    "MolecularWeight": [
        "62.0678",
        "kg/kmol"
    ],
    "LiquidVolumeAtNormalBoilingPoint": [
        "0.055908",
        "m3/kmol"
    ],
    "AcentricityFactor": [
        "0.506776",
        "_"
    ],
    "SolubilityParameter": [
        "33840",
        "J0.5/m1.5"
    ],
    "DipoleMoment": [
        "8.04E-30",
        "Coulomb.m"
    ],
    "HeatOfFormation": [
        "-3.922E+08",
        "J/kmol"
    ],
    "GibbsEnergyOfFormation": [
        "-3.018E+08",
        "J/kmol"
    ],
    "AbsEntropy": [
        "304891",
        "J/kmol/K"
    ],
    "HeatOfFusionAtMeltingPoint": [
        "9958000",
        "J/kmol"
    ],
    "HeatOfCombustion": [
        "-1.0527E+09",
        "J/kmol"
    ],
    "LiquidDensity": [
        {
            "eqno": "105",
            "A": "1.3106",
            "B": "0.25084",
            "C": "720",
            "D": "0.21838",
            "Tmin": "260.15",
            "Tmax": "695.8"
        },
        "kmol/m3"
    ],
    "VaporPressure": [
        {
            "eqno": "101",
            "A": "68.11797",
            "B": "-9617.267",
            "C": "-5.83171",
            "D": "-1.13705E-06",
            "E": "2",
            "Tmin": "260.15",
            "Tmax": "720"
        },
        "Pa"
    ],
    "HeatOfVaporization": [
        {
            "eqno": "106",
            "A": "7.414E+07",
            "B": "0.16807",
            "C": "-0.19694",
            "D": "1.0417",
            "E": "-0.61488",
            "Tmin": "260.15",
            "Tmax": "695.8"
        },
        "J/kmol"
    ],
    "LiquidHeatCapacityCp": [
        {
            "eqno": "16",
            "A": "86990",
            "B": "-72.326",
            "C": "9.7466",
            "D": "0.0065456",
            "E": "-0.0000047",
            "Tmin": "260.15",
            "Tmax": "493.15"
        },
        "J/kmol/K"
    ],
    "IdealGasHeatCapacityCp": [
        {
            "eqno": "16",
            "A": "52948",
            "B": "-604.61",
            "C": "12.115",
            "D": "0.00010607",
            "E": "-4.9352E-08",
            "Tmin": "260.15",
            "Tmax": "1500"
        },
        "J/kmol/K"
    ],
    "SecondVirialCoefficient": [
        {
            "eqno": "104",
            "A": "-0.078528",
            "B": "282.59",
            "C": "-200.74",
            "D": "1071400",
            "E": "-5423600",
            "Tmin": "360",
            "Tmax": "1500"
        },
        "m3/kmol"
    ],
    "LiquidViscosity": [
        {
            "eqno": "101",
            "A": "-309.38",
            "B": "14928",
            "C": "45.49",
            "D": "-0.000044405",
            "E": "2",
            "Tmin": "260.15",
            "Tmax": "576"
        },
        "Pa.s"
    ],
    "VaporViscosity": [
        {
            "eqno": "102",
            "A": "1.2284E-07",
            "B": "0.79557",
            "C": "132.87",
            "D": "-5540.3",
            "Tmin": "260.15",
            "Tmax": "1000"
        },
        "Pa.s"
    ],
    "LiquidThermalConductivity": [
        {
            "eqno": "16",
            "A": "0.1684",
            "B": "-313.75",
            "C": "-1.072",
            "D": "-0.000058054",
            "E": "-0.0000032443",
            "Tmin": "260.15",
            "Tmax": "470.45"
        },
        "W/m/K"
    ],
    "VaporThermalConductivity": [
        {
            "eqno": "102",
            "A": "-8962900",
            "B": "-0.31257",
            "C": "2.5313E+09",
            "D": "-1.2955E+13",
            "Tmin": "279.13",
            "Tmax": "1000"
        },
        "W/m/K"
    ],
    "RPPHeatCapacityCp": [
        {
            "eqno": "4",
            "A": "12781",
            "B": "255.9",
            "C": "-0.13868",
            "D": "0.000028589",
            "Tmin": "260.15",
            "Tmax": "1500"
        },
        "J/kmol/K"
    ],
    "RelativeStaticPermittivity": [
        {
            "eqno": "120",
            "A": "-9.798016",
            "B": "-14083.52",
            "C": "-5.743104",
            "Tmin": "278",
            "Tmax": "720"
        },
        "_"
    ],
    "AntoineVaporPressure": [
        {
            "eqno": "10",
            "A": "22.236",
            "B": "3826",
            "C": "-113.27",
            "Tmin": "433.1",
            "Tmax": "647.39"
        },
        "Pa"
    ],
    "LiquidViscosityRPS": [
        {
            "eqno": "13",
            "A": "11.094",
            "B": "-0.068649",
            "C": "0.000060412",
            "Tmin": "260.15",
            "Tmax": "576"
        },
        "Pa.s"
    ],
    "COSTALDVolume": [
        "0.193662",
        "m3/kmol"
    ],
    "DiameterLJ": [
        "5.361602E-10",
        "m"
    ],
    "EnergyLJ": [
        "378.5562",
        "K"
    ],
    "RacketParameter": [
        "0.2793",
        "_"
    ],
    "FullerVolume": [
        "57.88",
        "_"
    ],
    "Parachor": [
        "0.0334",
        "kg0.25.m3/s0.5/kmol"
    ],
    "SpecificGravity": [
        "1.11071",
        "_"
    ],
    "Charge": [
        "0",
        "_"
    ],
    "CostaldAcentricFactor": [
        "0.48683",
        "_"
    ],
    "WilsonVolume": [
        "0.0559089",
        "m3/kmol"
    ],
    "ChaoSeaderAcentricFactor": [
        "0.48683",
        "_"
    ],
    "ChaoSeaderSolubilityParameter": [
        "33703.3",
        "J0.5/m1.5"
    ],
    "ChaoSeaderLiquidVolume": [
        "0.0559089",
        "m3/kmol"
    ],
    "RadiusOfGyration": [
        "2.564E-10",
        "m"
    ],
    "VanDerWaalsVolume": [
        "0.03654",
        "m3/kmol"
    ],
    "VanDerWaalsArea": [
        "5.62E+08",
        "m2/kmol"
    ],
    "MatthiasCopemanC1": [
        "1.25835",
        "_"
    ],
    "SolidDensity": [
        {
            "eqno": "2",
            "A": "23.236",
            "B": "-0.009952",
            "Tmin": "104.06",
            "Tmax": "260.15"
        },
        "kmol/m3"
    ],
    "SurfaceTension": [
        {
            "eqno": "16",
            "A": "-0.0064328",
            "B": "94.796",
            "C": "-3.4232",
            "D": "0.001824",
            "E": "-0.0000039732",
            "Tmin": "260.15",
            "Tmax": "470.45"
        },
        "N/m"
    ],
    "MatthiasCopemanC2": [
        "0",
        "_"
    ],
    "UniquacR": [
        "2.41",
        "_"
    ],
    "UniquacQ": [
        "2.25",
        "_"
    ],
    "ApiSrkS2": [
        "-0.216396",
        "_"
    ],
    "MatthiasCopemanC3": [
        "0",
        "_"
    ],
    "SolidHeatCapacityCp": [
        {
            "eqno": "100",
            "A": "24975",
            "B": "-137.65",
            "C": "6.7837",
            "D": "-0.041927",
            "E": "0.000088083",
            "Tmin": "40",
            "Tmax": "240"
        },
        "J/kmol/K"
    ],
    "UniquacQP": [
        "0.92",
        "_"
    ],
    "ApiSrkS1": [
        "1.678665",
        "_"
    ]
}