{
    "CAS": "107-15-3",
    "LibraryIndex": "1741",
    "CompoundID": "Ethylenediamine",
    "StructureFormula": "H2NCH2CH2NH2",
    "Family": "37",
    "CriticalTemperature": [
        "592.95",
        "K"
    ],
    "CriticalPressure": [
        "6290000",
        "Pa"
    ],
    "CriticalVolume": [
        "0.206",
        "m3/kmol"
    ],
    "CriticalCompressibility": [
        "0.337",
        "_"
    ],
    "NormalBoilingPointTemperature": [
        "390.15",
        "K"
    ],
    "NormalMeltingPointTemperature": [
        "281.65",
        "K"
    ],
    "TriplePointTemperature": [
        "284.29",
        "K"
    ],
    "TriplePointPressure": [
        "677.511",
        "Pa"
    ],
    "MolecularWeight": [
        "60.0983",
        "kg/kmol"
    ],
    "LiquidVolumeAtNormalBoilingPoint": [
        "0.0672757",
        "m3/kmol"
    ],
    "AcentricityFactor": [
        "0.472367",
        "_"
    ],
    "SolubilityParameter": [
        "25200",
        "J0.5/m1.5"
    ],
    "DipoleMoment": [
        "6.34E-30",
        "Coulomb.m"
    ],
    "HeatOfFormation": [
        "-1.78E+07",
        "J/kmol"
    ],
    "GibbsEnergyOfFormation": [
        "1.032E+08",
        "J/kmol"
    ],
    "AbsEntropy": [
        "321833",
        "J/kmol/K"
    ],
    "HeatOfFusionAtMeltingPoint": [
        "109700",
        "J/kmol"
    ],
    "HeatOfCombustion": [
        "-1.691E+09",
        "J/kmol"
    ],
    "LiquidDensity": [
        {
            "eqno": "105",
            "A": "0.77469",
            "B": "0.20588",
            "C": "592.95",
            "D": "0.20098",
            "Tmin": "273.15",
            "Tmax": "576.75"
        },
        "kmol/m3"
    ],
    "VaporPressure": [
        {
            "eqno": "101",
            "A": "133.543",
            "B": "-9787.615",
            "C": "-16.57909",
            "D": "0.0000129717",
            "E": "2",
            "Tmin": "262.15",
            "Tmax": "593"
        },
        "Pa"
    ],
    "HeatOfVaporization": [
        {
            "eqno": "106",
            "A": "7.5708E+07",
            "B": "1.0826",
            "C": "-0.65481",
            "D": "-0.27019",
            "E": "0.25065",
            "Tmin": "284.29",
            "Tmax": "576.75"
        },
        "J/kmol"
    ],
    "LiquidHeatCapacityCp": [
        {
            "eqno": "16",
            "A": "143860",
            "B": "434.68",
            "C": "4.2425",
            "D": "0.021662",
            "E": "-0.000021123",
            "Tmin": "284.29",
            "Tmax": "390.41"
        },
        "J/kmol/K"
    ],
    "IdealGasHeatCapacityCp": [
        {
            "eqno": "16",
            "A": "58340",
            "B": "-554.75",
            "C": "12.205",
            "D": "0.00022368",
            "E": "-7.8562E-08",
            "Tmin": "273",
            "Tmax": "1500"
        },
        "J/kmol/K"
    ],
    "SecondVirialCoefficient": [
        {
            "eqno": "104",
            "A": "0.12638",
            "B": "-182.9",
            "C": "-38.105",
            "D": "-22568",
            "E": "37297",
            "Tmin": "296.5",
            "Tmax": "1899.5"
        },
        "m3/kmol"
    ],
    "LiquidViscosity": [
        {
            "eqno": "101",
            "A": "-9.2076",
            "B": "2247.2",
            "C": "-0.93509",
            "D": "0.0000071501",
            "E": "2",
            "Tmin": "284.29",
            "Tmax": "483.15"
        },
        "Pa.s"
    ],
    "VaporViscosity": [
        {
            "eqno": "102",
            "A": "2.0005E-07",
            "B": "0.70929",
            "C": "192.67",
            "D": "-6383.4",
            "Tmin": "284.29",
            "Tmax": "1000"
        },
        "Pa.s"
    ],
    "LiquidThermalConductivity": [
        {
            "eqno": "16",
            "A": "0.020715",
            "B": "-158.25",
            "C": "0.1953",
            "D": "-0.004385",
            "E": "0.0000010035",
            "Tmin": "284.29",
            "Tmax": "390.41"
        },
        "W/m/K"
    ],
    "VaporThermalConductivity": [
        {
            "eqno": "102",
            "A": "0.16528",
            "B": "0.18013",
            "C": "3835.1",
            "D": "1598900",
            "Tmin": "390.41",
            "Tmax": "1000"
        },
        "W/m/K"
    ],
    "RPPHeatCapacityCp": [
        {
            "eqno": "4",
            "A": "13229",
            "B": "307.67",
            "C": "-0.16317",
            "D": "0.000033422",
            "Tmin": "273",
            "Tmax": "1500"
        },
        "J/kmol/K"
    ],
    "RelativeStaticPermittivity": [
        {
            "eqno": "120",
            "A": "-16.9316",
            "B": "-8000",
            "C": "-48",
            "Tmin": "271.9278",
            "Tmax": "441.9278"
        },
        "_"
    ],
    "AntoineVaporPressure": [
        {
            "eqno": "10",
            "A": "22.176",
            "B": "3547.8",
            "C": "-57.244",
            "Tmin": "356.35",
            "Tmax": "528.01"
        },
        "Pa"
    ],
    "LiquidViscosityRPS": [
        {
            "eqno": "12",
            "A": "-2.9318",
            "B": "-0.012454",
            "Tmin": "284.29",
            "Tmax": "483.15"
        },
        "Pa.s"
    ],
    "COSTALDVolume": [
        "0.2203",
        "m3/kmol"
    ],
    "DiameterLJ": [
        "4.064853E-10",
        "m"
    ],
    "EnergyLJ": [
        "771.612",
        "K"
    ],
    "RacketParameter": [
        "0.337",
        "_"
    ],
    "FullerVolume": [
        "56.533",
        "_"
    ],
    "Parachor": [
        "0.0304359",
        "kg0.25.m3/s0.5/kmol"
    ],
    "SpecificGravity": [
        "1.17431",
        "_"
    ],
    "Charge": [
        "0",
        "_"
    ],
    "CostaldAcentricFactor": [
        "1.28411",
        "_"
    ],
    "WilsonVolume": [
        "0.132992",
        "m3/kmol"
    ],
    "ChaoSeaderAcentricFactor": [
        "1.28411",
        "_"
    ],
    "ChaoSeaderSolubilityParameter": [
        "27430",
        "J0.5/m1.5"
    ],
    "ChaoSeaderLiquidVolume": [
        "0.132992",
        "m3/kmol"
    ],
    "RadiusOfGyration": [
        "2.7605E-10",
        "m"
    ],
    "VanDerWaalsVolume": [
        "0.04154",
        "m3/kmol"
    ],
    "VanDerWaalsArea": [
        "5.54E+08",
        "m2/kmol"
    ],
    "MatthiasCopemanC1": [
        "1.3873",
        "_"
    ],
    "SolidDensity": [
        {
            "eqno": "2",
            "A": "19.105",
            "B": "-0.007483",
            "C": "0",
            "D": "0",
            "E": "0",
            "Tmin": "113.72",
            "Tmax": "284.29"
        },
        "kmol/m3"
    ],
    "SurfaceTension": [
        {
            "eqno": "16",
            "A": "-0.031818",
            "B": "-71.601",
            "C": "-1.8001",
            "D": "-0.00127",
            "E": "-0.0000022345",
            "Tmin": "284.29",
            "Tmax": "576.75"
        },
        "N/m"
    ],
    "MatthiasCopemanC2": [
        "-1.7134",
        "_"
    ],
    "UniquacR": [
        "2.7384",
        "_"
    ],
    "UniquacQ": [
        "2.472",
        "_"
    ],
    "ApiSrkS2": [
        "0.141244",
        "_"
    ],
    "MatthiasCopemanC3": [
        "3.1081",
        "_"
    ],
    "SolidHeatCapacityCp": [
        {
            "eqno": "100",
            "A": "-16264",
            "B": "987.11",
            "C": "-4.4926",
            "D": "0.011566",
            "E": "-0.0000088487",
            "Tmin": "25.91",
            "Tmax": "265.65"
        },
        "J/kmol/K"
    ],
    "UniquacQP": [
        "4.936",
        "_"
    ],
    "ApiSrkS1": [
        "0.529899",
        "_"
    ]
}