{
    "CAS": "1074-43-7",
    "LibraryIndex": "586",
    "CompoundID": "1-methyl-3-n-propylbenzene",
    "StructureFormula": "CH3(C6H4)CH2CH2CH3",
    "Family": "17",
    "CriticalTemperature": [
        "656",
        "K"
    ],
    "CriticalPressure": [
        "2860000",
        "Pa"
    ],
    "CriticalVolume": [
        "0.482",
        "m3/kmol"
    ],
    "CriticalCompressibility": [
        "0.249",
        "_"
    ],
    "NormalBoilingPointTemperature": [
        "455.13",
        "K"
    ],
    "NormalMeltingPointTemperature": [
        "190.57",
        "K"
    ],
    "TriplePointTemperature": [
        "190.57",
        "K"
    ],
    "TriplePointPressure": [
        "0.000721452",
        "Pa"
    ],
    "MolecularWeight": [
        "134.218",
        "kg/kmol"
    ],
    "LiquidVolumeAtNormalBoilingPoint": [
        "0.156623",
        "m3/kmol"
    ],
    "AcentricityFactor": [
        "0.412785",
        "_"
    ],
    "SolubilityParameter": [
        "17510",
        "J0.5/m1.5"
    ],
    "DipoleMoment": [
        "4.07E-31",
        "Coulomb.m"
    ],
    "HeatOfFormation": [
        "-2.414E+07",
        "J/kmol"
    ],
    "GibbsEnergyOfFormation": [
        "1.352E+08",
        "J/kmol"
    ],
    "AbsEntropy": [
        "436800",
        "J/kmol/K"
    ],
    "HeatOfFusionAtMeltingPoint": [
        "1.06E+07",
        "J/kmol"
    ],
    "HeatOfCombustion": [
        "-5.5516E+09",
        "J/kmol"
    ],
    "LiquidDensity": [
        {
            "eqno": "105",
            "A": "0.18222",
            "B": "0.15152",
            "C": "656",
            "D": "0.20178",
            "Tmin": "190.57",
            "Tmax": "654"
        },
        "kmol/m3"
    ],
    "VaporPressure": [
        {
            "eqno": "101",
            "A": "107.4588",
            "B": "-9508.773",
            "C": "-12.48918",
            "D": "6.776919E-06",
            "E": "2",
            "Tmin": "190.57",
            "Tmax": "654"
        },
        "Pa"
    ],
    "HeatOfVaporization": [
        {
            "eqno": "106",
            "A": "6.194565E+07",
            "B": "0.0524158",
            "C": "1.088831",
            "D": "-1.22236",
            "E": "0.439479",
            "Tmin": "190.57",
            "Tmax": "654"
        },
        "J/kmol"
    ],
    "LiquidHeatCapacityCp": [
        {
            "eqno": "16",
            "A": "156110",
            "B": "-38.093",
            "C": "10.159",
            "D": "0.0050313",
            "E": "-0.0000015247",
            "Tmin": "298.15",
            "Tmax": "490.5"
        },
        "J/kmol/K"
    ],
    "IdealGasHeatCapacityCp": [
        {
            "eqno": "16",
            "A": "97127",
            "B": "-599.11",
            "C": "13.273",
            "D": "0.000011665",
            "E": "-1.9003E-08",
            "Tmin": "298.15",
            "Tmax": "1500"
        },
        "J/kmol/K"
    ],
    "SecondVirialCoefficient": [
        {
            "eqno": "104",
            "A": "0.34716",
            "B": "-445.08",
            "C": "-93.628",
            "D": "-50591",
            "E": "81753",
            "Tmin": "327",
            "Tmax": "1500"
        },
        "m3/kmol"
    ],
    "LiquidViscosity": [
        {
            "eqno": "101",
            "A": "-17.301",
            "B": "1601.4",
            "C": "0.91018",
            "D": "-0.0000014707",
            "E": "2",
            "Tmin": "190.57",
            "Tmax": "603.15"
        },
        "Pa.s"
    ],
    "VaporViscosity": [
        {
            "eqno": "102",
            "A": "7.3681E-08",
            "B": "0.81524",
            "C": "130.94",
            "D": "-9552",
            "Tmin": "190.57",
            "Tmax": "1000"
        },
        "Pa.s"
    ],
    "LiquidThermalConductivity": [
        {
            "eqno": "16",
            "A": "-0.074198",
            "B": "4.023",
            "C": "-1.4364",
            "D": "-0.00042252",
            "E": "-0.0000008562",
            "Tmin": "190.57",
            "Tmax": "454.95"
        },
        "W/m/K"
    ],
    "VaporThermalConductivity": [
        {
            "eqno": "102",
            "A": "0.000083513",
            "B": "1.0517",
            "C": "570.8",
            "D": "33790",
            "Tmin": "454.95",
            "Tmax": "1000"
        },
        "W/m/K"
    ],
    "RPPHeatCapacityCp": [
        {
            "eqno": "4",
            "A": "-26053",
            "B": "805.01",
            "C": "-0.46803",
            "D": "0.00010355",
            "Tmin": "298.15",
            "Tmax": "1500"
        },
        "J/kmol/K"
    ],
    "RelativeStaticPermittivity": [
        {
            "eqno": "120",
            "A": "-1.756835",
            "B": "-1150",
            "C": "-6.9",
            "Tmin": "271.3722",
            "Tmax": "441.3722"
        },
        "_"
    ],
    "AntoineVaporPressure": [
        {
            "eqno": "10",
            "A": "21.2",
            "B": "3779.7",
            "C": "-64.304",
            "Tmin": "395",
            "Tmax": "590"
        },
        "Pa"
    ],
    "LiquidViscosityRPS": [
        {
            "eqno": "12",
            "A": "-3.1694",
            "B": "-0.011417",
            "Tmin": "190.57",
            "Tmax": "603.15"
        },
        "Pa.s"
    ],
    "COSTALDVolume": [
        "0.50161",
        "m3/kmol"
    ],
    "DiameterLJ": [
        "7.75928E-10",
        "m"
    ],
    "EnergyLJ": [
        "287.1671",
        "K"
    ],
    "RacketParameter": [
        "0.249",
        "_"
    ],
    "FullerVolume": [
        "173.04",
        "_"
    ],
    "Parachor": [
        "0.0643271",
        "kg0.25.m3/s0.5/kmol"
    ],
    "SpecificGravity": [
        "0.865762",
        "_"
    ],
    "Charge": [
        "0",
        "_"
    ],
    "CostaldAcentricFactor": [
        "0.412785",
        "_"
    ],
    "WilsonVolume": [
        "0.156623",
        "m3/kmol"
    ],
    "ChaoSeaderAcentricFactor": [
        "0.412785",
        "_"
    ],
    "ChaoSeaderSolubilityParameter": [
        "17510",
        "J0.5/m1.5"
    ],
    "ChaoSeaderLiquidVolume": [
        "0.156623",
        "m3/kmol"
    ],
    "RadiusOfGyration": [
        "4.794E-10",
        "m"
    ],
    "VanDerWaalsVolume": [
        "0.09112",
        "m3/kmol"
    ],
    "VanDerWaalsArea": [
        "1.154E+09",
        "m2/kmol"
    ],
    "MatthiasCopemanC1": [
        "1.11",
        "_"
    ],
    "SolidDensity": [
        {
            "eqno": "100",
            "A": "9.0174",
            "B": "-0.0059147",
            "C": "0",
            "D": "0",
            "E": "0",
            "Tmin": "76.23",
            "Tmax": "190.57"
        },
        "kmol/m3"
    ],
    "SurfaceTension": [
        {
            "eqno": "16",
            "A": "-0.0086511",
            "B": "61.14",
            "C": "-3.1888",
            "D": "0.0004569",
            "E": "-0.0000046729",
            "Tmin": "190.57",
            "Tmax": "654"
        },
        "N/m"
    ],
    "MatthiasCopemanC2": [
        "0",
        "_"
    ],
    "UniquacR": [
        "6.0066",
        "_"
    ],
    "UniquacQ": [
        "4.616",
        "_"
    ],
    "ApiSrkS2": [
        "-0.014791",
        "_"
    ],
    "MatthiasCopemanC3": [
        "0",
        "_"
    ],
    "SolidHeatCapacityCp": [
        {
            "eqno": "1",
            "A": "214740",
            "Tmin": "0",
            "Tmax": "656"
        },
        "J/kmol/K"
    ],
    "UniquacQP": [
        "4.936",
        "_"
    ],
    "ApiSrkS1": [
        "0.59245",
        "_"
    ]
}