{
    "CAS": "108-21-4",
    "LibraryIndex": "1319",
    "CompoundID": "Isopropyl acetate",
    "StructureFormula": "CH3COOCH(CH3)2",
    "Family": "56",
    "CriticalTemperature": [
        "516.15",
        "K"
    ],
    "CriticalPressure": [
        "3495640",
        "Pa"
    ],
    "CriticalVolume": [
        "0.343881",
        "m3/kmol"
    ],
    "CriticalCompressibility": [
        "0.25",
        "_"
    ],
    "NormalBoilingPointTemperature": [
        "361.65",
        "K"
    ],
    "NormalMeltingPointTemperature": [
        "199.75",
        "K"
    ],
    "TriplePointTemperature": [
        "199.75",
        "K"
    ],
    "TriplePointPressure": [
        "3.8692",
        "Pa"
    ],
    "MolecularWeight": [
        "102.132",
        "kg/kmol"
    ],
    "LiquidVolumeAtNormalBoilingPoint": [
        "0.117579",
        "m3/kmol"
    ],
    "AcentricityFactor": [
        "0.542817",
        "_"
    ],
    "SolubilityParameter": [
        "17150",
        "J0.5/m1.5"
    ],
    "DipoleMoment": [
        "5.84E-30",
        "Coulomb.m"
    ],
    "HeatOfFormation": [
        "-4.817E+08",
        "J/kmol"
    ],
    "GibbsEnergyOfFormation": [
        "-3.337E+08",
        "J/kmol"
    ],
    "AbsEntropy": [
        "390200",
        "J/kmol/K"
    ],
    "HeatOfFusionAtMeltingPoint": [
        "8880000",
        "J/kmol"
    ],
    "HeatOfCombustion": [
        "-2.658E+09",
        "J/kmol"
    ],
    "LiquidDensity": [
        {
            "eqno": "105",
            "A": "1.7447",
            "B": "0.38746",
            "C": "516.15",
            "D": "0.46246",
            "Tmin": "199.75",
            "Tmax": "514.51"
        },
        "kmol/m3"
    ],
    "VaporPressure": [
        {
            "eqno": "101",
            "A": "53.596",
            "B": "-5675.5",
            "C": "-4.5065",
            "D": "0.0000012831",
            "E": "2",
            "Tmin": "199.75",
            "Tmax": "532"
        },
        "Pa"
    ],
    "HeatOfVaporization": [
        {
            "eqno": "106",
            "A": "4.852874E+07",
            "B": "0.139799",
            "C": "0.87492",
            "D": "-1.379465",
            "E": "0.721356",
            "Tmin": "199.75",
            "Tmax": "514.51"
        },
        "J/kmol"
    ],
    "LiquidHeatCapacityCp": [
        {
            "eqno": "16",
            "A": "131390",
            "B": "-46.486",
            "C": "8.1047",
            "D": "0.013597",
            "E": "-0.000010999",
            "Tmin": "215.75",
            "Tmax": "478.8"
        },
        "J/kmol/K"
    ],
    "IdealGasHeatCapacityCp": [
        {
            "eqno": "16",
            "A": "49388",
            "B": "-461.23",
            "C": "12.886",
            "D": "-0.00010674",
            "E": "6.959E-08",
            "Tmin": "199.75",
            "Tmax": "1200.15"
        },
        "J/kmol/K"
    ],
    "SecondVirialCoefficient": [
        {
            "eqno": "104",
            "A": "0.22372",
            "B": "-237.39",
            "C": "-36.602",
            "D": "-8696.2",
            "E": "11115",
            "Tmin": "266",
            "Tmax": "1500"
        },
        "m3/kmol"
    ],
    "LiquidViscosity": [
        {
            "eqno": "101",
            "A": "-10.895",
            "B": "1115.7",
            "C": "-0.084451",
            "D": "4.8399E-07",
            "E": "2",
            "Tmin": "199.75",
            "Tmax": "361.65"
        },
        "Pa.s"
    ],
    "VaporViscosity": [
        {
            "eqno": "102",
            "A": "3.7177E-07",
            "B": "0.62086",
            "C": "249.31",
            "D": "-266.55",
            "Tmin": "199.75",
            "Tmax": "1000"
        },
        "Pa.s"
    ],
    "LiquidThermalConductivity": [
        {
            "eqno": "16",
            "A": "-0.09612",
            "B": "7.576",
            "C": "-1.2028",
            "D": "-0.00070085",
            "E": "-9.2097E-07",
            "Tmin": "161.4",
            "Tmax": "421.4"
        },
        "W/m/K"
    ],
    "VaporThermalConductivity": [
        {
            "eqno": "102",
            "A": "-5913400",
            "B": "-0.12076",
            "C": "3.6992E+09",
            "D": "-2.5996E+13",
            "Tmin": "361.65",
            "Tmax": "1000"
        },
        "W/m/K"
    ],
    "RPPHeatCapacityCp": [
        {
            "eqno": "4",
            "A": "-29200",
            "B": "680.9",
            "C": "-0.52361",
            "D": "0.00016062",
            "Tmin": "199.75",
            "Tmax": "1200.15"
        },
        "J/kmol/K"
    ],
    "RelativeStaticPermittivity": [
        {
            "eqno": "120",
            "A": "-3.251956",
            "B": "-2150",
            "C": "-12.9",
            "Tmin": "278.5945",
            "Tmax": "448.5945"
        },
        "_"
    ],
    "AntoineVaporPressure": [
        {
            "eqno": "10",
            "A": "21.384",
            "B": "3059.3",
            "C": "-51.328",
            "Tmin": "312.04",
            "Tmax": "462.05"
        },
        "Pa"
    ],
    "LiquidViscosityRPS": [
        {
            "eqno": "12",
            "A": "-2.9628",
            "B": "-0.015227",
            "Tmin": "199.75",
            "Tmax": "361.65"
        },
        "Pa.s"
    ],
    "COSTALDVolume": [
        "0.337297",
        "m3/kmol"
    ],
    "DiameterLJ": [
        "6.900063E-10",
        "m"
    ],
    "EnergyLJ": [
        "229.2309",
        "K"
    ],
    "RacketParameter": [
        "0.25",
        "_"
    ],
    "FullerVolume": [
        "114.82",
        "_"
    ],
    "Parachor": [
        "0.0449492",
        "kg0.25.m3/s0.5/kmol"
    ],
    "SpecificGravity": [
        "0.881001",
        "_"
    ],
    "Charge": [
        "0",
        "_"
    ],
    "CostaldAcentricFactor": [
        "0.367774",
        "_"
    ],
    "WilsonVolume": [
        "0.117579",
        "m3/kmol"
    ],
    "ChaoSeaderAcentricFactor": [
        "0.367774",
        "_"
    ],
    "ChaoSeaderSolubilityParameter": [
        "17150",
        "J0.5/m1.5"
    ],
    "ChaoSeaderLiquidVolume": [
        "0.117579",
        "m3/kmol"
    ],
    "RadiusOfGyration": [
        "3.679E-10",
        "m"
    ],
    "VanDerWaalsVolume": [
        "0.06299",
        "m3/kmol"
    ],
    "VanDerWaalsArea": [
        "9.13E+08",
        "m2/kmol"
    ],
    "MatthiasCopemanC1": [
        "1.28",
        "_"
    ],
    "SolidDensity": [
        {
            "eqno": "2",
            "A": "12.073",
            "B": "-0.0067629",
            "C": "0",
            "D": "0",
            "E": "0",
            "Tmin": "79.9",
            "Tmax": "199.75"
        },
        "kmol/m3"
    ],
    "SurfaceTension": [
        {
            "eqno": "16",
            "A": "-0.0048741",
            "B": "363.65",
            "C": "-7.1258",
            "D": "0.0151",
            "E": "-0.000025128",
            "Tmin": "199.75",
            "Tmax": "514.51"
        },
        "N/m"
    ],
    "MatthiasCopemanC2": [
        "0",
        "_"
    ],
    "UniquacR": [
        "4.1522",
        "_"
    ],
    "UniquacQ": [
        "3.652",
        "_"
    ],
    "ApiSrkS2": [
        "0.04628",
        "_"
    ],
    "MatthiasCopemanC3": [
        "0",
        "_"
    ],
    "SolidHeatCapacityCp": [
        {
            "eqno": "1",
            "A": "156890",
            "Tmin": "0",
            "Tmax": "516.15"
        },
        "J/kmol/K"
    ],
    "UniquacQP": [
        "4.936",
        "_"
    ],
    "ApiSrkS1": [
        "0.886894",
        "_"
    ]
}