{
    "CAS": "108-05-4",
    "LibraryIndex": "1321",
    "CompoundID": "Vinyl acetate",
    "StructureFormula": "CH3COOCHCH2",
    "Family": "56",
    "CriticalTemperature": [
        "501.45",
        "K"
    ],
    "CriticalPressure": [
        "4150000",
        "Pa"
    ],
    "CriticalVolume": [
        "0.266",
        "m3/kmol"
    ],
    "CriticalCompressibility": [
        "0.248",
        "_"
    ],
    "NormalBoilingPointTemperature": [
        "345.65",
        "K"
    ],
    "NormalMeltingPointTemperature": [
        "180.35",
        "K"
    ],
    "TriplePointTemperature": [
        "180.35",
        "K"
    ],
    "TriplePointPressure": [
        "0.70586",
        "Pa"
    ],
    "MolecularWeight": [
        "86.0892",
        "kg/kmol"
    ],
    "LiquidVolumeAtNormalBoilingPoint": [
        "0.0929486",
        "m3/kmol"
    ],
    "AcentricityFactor": [
        "0.529352",
        "_"
    ],
    "SolubilityParameter": [
        "18580",
        "J0.5/m1.5"
    ],
    "DipoleMoment": [
        "5.97E-30",
        "Coulomb.m"
    ],
    "HeatOfFormation": [
        "-3.157E+08",
        "J/kmol"
    ],
    "GibbsEnergyOfFormation": [
        "-2.287E+08",
        "J/kmol"
    ],
    "AbsEntropy": [
        "334400",
        "J/kmol/K"
    ],
    "HeatOfFusionAtMeltingPoint": [
        "5370000",
        "J/kmol"
    ],
    "HeatOfCombustion": [
        "-1.95E+09",
        "J/kmol"
    ],
    "LiquidDensity": [
        {
            "eqno": "105",
            "A": "0.80837",
            "B": "0.2388",
            "C": "524.34",
            "D": "0.25151",
            "Tmin": "180.35",
            "Tmax": "524.33"
        },
        "kmol/m3"
    ],
    "VaporPressure": [
        {
            "eqno": "101",
            "A": "-28.90631",
            "B": "-2451.071",
            "C": "8.43748",
            "D": "-0.000014969",
            "E": "2",
            "Tmin": "180.35",
            "Tmax": "519.13"
        },
        "Pa"
    ],
    "HeatOfVaporization": [
        {
            "eqno": "106",
            "A": "5.178411E+07",
            "B": "1.329393",
            "C": "-3.127105",
            "D": "3.542901",
            "E": "-1.384803",
            "Tmin": "180.35",
            "Tmax": "501.3"
        },
        "J/kmol"
    ],
    "LiquidHeatCapacityCp": [
        {
            "eqno": "16",
            "A": "104670",
            "B": "68.241",
            "C": "7.8309",
            "D": "0.01301",
            "E": "-0.00001011",
            "Tmin": "213.41",
            "Tmax": "389.35"
        },
        "J/kmol/K"
    ],
    "IdealGasHeatCapacityCp": [
        {
            "eqno": "16",
            "A": "50651",
            "B": "-432.89",
            "C": "12.118",
            "D": "0.00048734",
            "E": "-1.8964E-07",
            "Tmin": "100",
            "Tmax": "1500"
        },
        "J/kmol/K"
    ],
    "SecondVirialCoefficient": [
        {
            "eqno": "104",
            "A": "0.18283",
            "B": "-191.61",
            "C": "-27.209",
            "D": "-6457.2",
            "E": "8397.1",
            "Tmin": "259.56",
            "Tmax": "1890.57"
        },
        "m3/kmol"
    ],
    "LiquidViscosity": [
        {
            "eqno": "101",
            "A": "-20.187",
            "B": "1398",
            "C": "1.3362",
            "D": "8.2076E-07",
            "E": "2",
            "Tmin": "225",
            "Tmax": "345.65"
        },
        "Pa.s"
    ],
    "VaporViscosity": [
        {
            "eqno": "102",
            "A": "1.4727E-07",
            "B": "0.76076",
            "C": "119.27",
            "D": "67.359",
            "Tmin": "180.35",
            "Tmax": "1000"
        },
        "Pa.s"
    ],
    "LiquidThermalConductivity": [
        {
            "eqno": "16",
            "A": "-0.068153",
            "B": "28.848",
            "C": "-1.5016",
            "D": "0.00051317",
            "E": "-0.0000030057",
            "Tmin": "180.35",
            "Tmax": "410"
        },
        "W/m/K"
    ],
    "VaporThermalConductivity": [
        {
            "eqno": "102",
            "A": "-5281900",
            "B": "-0.16154",
            "C": "2.8419E+09",
            "D": "-1.7045E+13",
            "Tmin": "276.09",
            "Tmax": "1000"
        },
        "W/m/K"
    ],
    "RPPHeatCapacityCp": [
        {
            "eqno": "4",
            "A": "21072",
            "B": "300.62",
            "C": "-0.12074",
            "D": "0.000010448",
            "Tmin": "100",
            "Tmax": "1500"
        },
        "J/kmol/K"
    ],
    "RelativeStaticPermittivity": [
        {
            "eqno": "120",
            "A": "-5.762874",
            "B": "-3450",
            "C": "-20.7",
            "Tmin": "274.15",
            "Tmax": "444.15"
        },
        "_"
    ],
    "AntoineVaporPressure": [
        {
            "eqno": "10",
            "A": "21.328",
            "B": "2885.8",
            "C": "-51.534",
            "Tmin": "301.95",
            "Tmax": "447.81"
        },
        "Pa"
    ],
    "LiquidViscosityRPS": [
        {
            "eqno": "12",
            "A": "-4.1171",
            "B": "-0.012291",
            "Tmin": "225",
            "Tmax": "345.65"
        },
        "Pa.s"
    ],
    "COSTALDVolume": [
        "0.261926",
        "m3/kmol"
    ],
    "DiameterLJ": [
        "6.395338E-10",
        "m"
    ],
    "EnergyLJ": [
        "216.355",
        "K"
    ],
    "RacketParameter": [
        "0.248",
        "_"
    ],
    "FullerVolume": [
        "89.68",
        "_"
    ],
    "Parachor": [
        "0.0355767",
        "kg0.25.m3/s0.5/kmol"
    ],
    "SpecificGravity": [
        "0.941",
        "_"
    ],
    "Charge": [
        "0",
        "_"
    ],
    "CostaldAcentricFactor": [
        "0.351307",
        "_"
    ],
    "WilsonVolume": [
        "0.0929486",
        "m3/kmol"
    ],
    "ChaoSeaderAcentricFactor": [
        "0.351307",
        "_"
    ],
    "ChaoSeaderSolubilityParameter": [
        "18580",
        "J0.5/m1.5"
    ],
    "ChaoSeaderLiquidVolume": [
        "0.0929486",
        "m3/kmol"
    ],
    "RadiusOfGyration": [
        "2.969E-10",
        "m"
    ],
    "VanDerWaalsVolume": [
        "0.04928",
        "m3/kmol"
    ],
    "VanDerWaalsArea": [
        "7.26E+08",
        "m2/kmol"
    ],
    "MatthiasCopemanC1": [
        "1.28",
        "_"
    ],
    "SolidDensity": [
        {
            "eqno": "2",
            "A": "15.585",
            "B": "-0.0095513",
            "C": "0",
            "D": "0",
            "E": "0",
            "Tmin": "72.14",
            "Tmax": "180.35"
        },
        "kmol/m3"
    ],
    "SurfaceTension": [
        {
            "eqno": "16",
            "A": "-0.0044907",
            "B": "310.64",
            "C": "-6.6728",
            "D": "0.014871",
            "E": "-0.000027076",
            "Tmin": "180.35",
            "Tmax": "501.3"
        },
        "N/m"
    ],
    "MatthiasCopemanC2": [
        "0",
        "_"
    ],
    "UniquacR": [
        "3.2485",
        "_"
    ],
    "UniquacQ": [
        "2.904",
        "_"
    ],
    "ApiSrkS2": [
        "0.04628",
        "_"
    ],
    "MatthiasCopemanC3": [
        "0",
        "_"
    ],
    "SolidHeatCapacityCp": [
        {
            "eqno": "1",
            "A": "115760",
            "Tmin": "0",
            "Tmax": "501.45"
        },
        "J/kmol/K"
    ],
    "UniquacQP": [
        "4.936",
        "_"
    ],
    "ApiSrkS1": [
        "0.886894",
        "_"
    ]
}