{
    "CAS": "109-89-7",
    "LibraryIndex": "1710",
    "CompoundID": "Diethylamine",
    "StructureFormula": "C2H5NHC2H5",
    "Family": "35",
    "CriticalTemperature": [
        "496.6",
        "K"
    ],
    "CriticalPressure": [
        "3710000",
        "Pa"
    ],
    "CriticalVolume": [
        "0.301",
        "m3/kmol"
    ],
    "CriticalCompressibility": [
        "0.27",
        "_"
    ],
    "NormalBoilingPointTemperature": [
        "328.6",
        "K"
    ],
    "NormalMeltingPointTemperature": [
        "223.35",
        "K"
    ],
    "TriplePointTemperature": [
        "223.35",
        "K"
    ],
    "TriplePointPressure": [
        "374.108",
        "Pa"
    ],
    "MolecularWeight": [
        "73.138",
        "kg/kmol"
    ],
    "LiquidVolumeAtNormalBoilingPoint": [
        "0.10424",
        "m3/kmol"
    ],
    "AcentricityFactor": [
        "0.303856",
        "_"
    ],
    "SolubilityParameter": [
        "16610",
        "J0.5/m1.5"
    ],
    "DipoleMoment": [
        "3.07E-30",
        "Coulomb.m"
    ],
    "HeatOfFormation": [
        "-7.142E+07",
        "J/kmol"
    ],
    "GibbsEnergyOfFormation": [
        "7.308E+07",
        "J/kmol"
    ],
    "AbsEntropy": [
        "352200",
        "J/kmol/K"
    ],
    "HeatOfFusionAtMeltingPoint": [
        "1.14E+07",
        "J/kmol"
    ],
    "HeatOfCombustion": [
        "-2.8003E+09",
        "J/kmol"
    ],
    "LiquidDensity": [
        {
            "eqno": "105",
            "A": "0.73036",
            "B": "0.23814",
            "C": "496.66",
            "D": "0.24991",
            "Tmin": "223.35",
            "Tmax": "496.65"
        },
        "kmol/m3"
    ],
    "VaporPressure": [
        {
            "eqno": "101",
            "A": "64.68388",
            "B": "-5484.939",
            "C": "-6.37255",
            "D": "4.185124E-06",
            "E": "2",
            "Tmin": "223.35",
            "Tmax": "496.65"
        },
        "Pa"
    ],
    "HeatOfVaporization": [
        {
            "eqno": "106",
            "A": "3.911798E+07",
            "B": "0.292165",
            "C": "-0.28266",
            "D": "0.355094",
            "E": "0.0257197",
            "Tmin": "223.35",
            "Tmax": "482.22"
        },
        "J/kmol"
    ],
    "LiquidHeatCapacityCp": [
        {
            "eqno": "16",
            "A": "107090",
            "B": "694.46",
            "C": "2.8508",
            "D": "0.027204",
            "E": "-0.000024864",
            "Tmin": "223.35",
            "Tmax": "368.3"
        },
        "J/kmol/K"
    ],
    "IdealGasHeatCapacityCp": [
        {
            "eqno": "16",
            "A": "85298",
            "B": "-793.64",
            "C": "13.085",
            "D": "-0.00026826",
            "E": "6.6572E-08",
            "Tmin": "200",
            "Tmax": "1500"
        },
        "J/kmol/K"
    ],
    "SecondVirialCoefficient": [
        {
            "eqno": "104",
            "A": "0.16812",
            "B": "-207.88",
            "C": "-22.248",
            "D": "-1109.7",
            "E": "896.13",
            "Tmin": "248.3",
            "Tmax": "1986.4"
        },
        "m3/kmol"
    ],
    "LiquidViscosity": [
        {
            "eqno": "101",
            "A": "-21.138",
            "B": "1492",
            "C": "1.4401",
            "D": "-0.0000012994",
            "E": "2",
            "Tmin": "223.35",
            "Tmax": "329.1"
        },
        "Pa.s"
    ],
    "VaporViscosity": [
        {
            "eqno": "102",
            "A": "4.3797E-07",
            "B": "0.60244",
            "C": "253.34",
            "D": "-614.36",
            "Tmin": "223.35",
            "Tmax": "1000"
        },
        "Pa.s"
    ],
    "LiquidThermalConductivity": [
        {
            "eqno": "16",
            "A": "0.066644",
            "B": "-97.786",
            "C": "-0.73312",
            "D": "-0.0054502",
            "E": "-7.5663E-08",
            "Tmin": "223.35",
            "Tmax": "453.15"
        },
        "W/m/K"
    ],
    "VaporThermalConductivity": [
        {
            "eqno": "102",
            "A": "0.000016939",
            "B": "1.2488",
            "C": "-114.17",
            "D": "77881",
            "Tmin": "273.15",
            "Tmax": "1000"
        },
        "W/m/K"
    ],
    "RPPHeatCapacityCp": [
        {
            "eqno": "100",
            "A": "25176",
            "B": "269.16",
            "C": "0.23513",
            "D": "-0.00045738",
            "E": "1.9123E-07",
            "Tmin": "298",
            "Tmax": "1000"
        },
        "J/kmol/K"
    ],
    "RelativeStaticPermittivity": [
        {
            "eqno": "120",
            "A": "-0.95",
            "B": "-1000",
            "C": "-75",
            "Tmin": "243",
            "Tmax": "496"
        },
        "_"
    ],
    "AntoineVaporPressure": [
        {
            "eqno": "10",
            "A": "21.038",
            "B": "2654.5",
            "C": "-49.762",
            "Tmin": "297.97",
            "Tmax": "443.15"
        },
        "Pa"
    ],
    "LiquidViscosityRPS": [
        {
            "eqno": "13",
            "A": "1.0998",
            "B": "-0.048496",
            "C": "0.000059737",
            "Tmin": "223.35",
            "Tmax": "329.1"
        },
        "Pa.s"
    ],
    "COSTALDVolume": [
        "0.29183",
        "m3/kmol"
    ],
    "DiameterLJ": [
        "6.018163E-10",
        "m"
    ],
    "EnergyLJ": [
        "290.9575",
        "K"
    ],
    "RacketParameter": [
        "0.27",
        "_"
    ],
    "FullerVolume": [
        "93.55",
        "_"
    ],
    "Parachor": [
        "0.0392",
        "kg0.25.m3/s0.5/kmol"
    ],
    "SpecificGravity": [
        "0.707",
        "_"
    ],
    "Charge": [
        "0",
        "_"
    ],
    "CostaldAcentricFactor": [
        "0.3045",
        "_"
    ],
    "WilsonVolume": [
        "0.104234",
        "m3/kmol"
    ],
    "ChaoSeaderAcentricFactor": [
        "0.303733",
        "_"
    ],
    "ChaoSeaderSolubilityParameter": [
        "16543.3",
        "J0.5/m1.5"
    ],
    "ChaoSeaderLiquidVolume": [
        "0.104234",
        "m3/kmol"
    ],
    "RadiusOfGyration": [
        "3.172E-10",
        "m"
    ],
    "VanDerWaalsVolume": [
        "0.05588",
        "m3/kmol"
    ],
    "VanDerWaalsArea": [
        "7.93E+08",
        "m2/kmol"
    ],
    "MatthiasCopemanC1": [
        "0.94091",
        "_"
    ],
    "SolidDensity": [
        {
            "eqno": "2",
            "A": "13.411",
            "B": "-0.0066259",
            "Tmin": "89.34",
            "Tmax": "223.35"
        },
        "kmol/m3"
    ],
    "SurfaceTension": [
        {
            "eqno": "16",
            "A": "-0.045239",
            "B": "-2.3813",
            "C": "-2.2833",
            "D": "-0.0012617",
            "E": "-7.5666E-07",
            "Tmin": "223.35",
            "Tmax": "482.22"
        },
        "N/m"
    ],
    "MatthiasCopemanC2": [
        "0",
        "_"
    ],
    "UniquacR": [
        "3.68",
        "_"
    ],
    "UniquacQ": [
        "3.17",
        "_"
    ],
    "ApiSrkS2": [
        "0.484002",
        "_"
    ],
    "MatthiasCopemanC3": [
        "0",
        "_"
    ],
    "SolidHeatCapacityCp": [
        {
            "eqno": "100",
            "A": "4978.9",
            "B": "695.29",
            "C": "-1.524",
            "D": "0.0044408",
            "E": "-0.0000057807",
            "Tmin": "50",
            "Tmax": "223.35"
        },
        "J/kmol/K"
    ],
    "UniquacQP": [
        "0.88",
        "_"
    ],
    "ApiSrkS1": [
        "0.745244",
        "_"
    ]
}