{
    "CAS": "109-83-1",
    "LibraryIndex": "6862",
    "CompoundID": "Methylethanolamine",
    "StructureFormula": "CH3NHCH2CH2OH",
    "Family": "68",
    "CriticalTemperature": [
        "630",
        "K"
    ],
    "CriticalPressure": [
        "5300000",
        "Pa"
    ],
    "CriticalVolume": [
        "0.25901",
        "m3/kmol"
    ],
    "CriticalCompressibility": [
        "0.262",
        "_"
    ],
    "NormalBoilingPointTemperature": [
        "432.388",
        "K"
    ],
    "NormalMeltingPointTemperature": [
        "268.65",
        "K"
    ],
    "TriplePointTemperature": [
        "268.65",
        "K"
    ],
    "TriplePointPressure": [
        "11.1091",
        "Pa"
    ],
    "MolecularWeight": [
        "75.112",
        "kg/kmol"
    ],
    "LiquidVolumeAtNormalBoilingPoint": [
        "0.082206",
        "m3/kmol"
    ],
    "AcentricityFactor": [
        "0.604",
        "_"
    ],
    "SolubilityParameter": [
        "25930",
        "J0.5/m1.5"
    ],
    "DipoleMoment": [
        "7.2E-30",
        "Coulomb.m"
    ],
    "HeatOfFormation": [
        "-1.98E+08",
        "J/kmol"
    ],
    "GibbsEnergyOfFormation": [
        "-6.11E+07",
        "J/kmol"
    ],
    "AbsEntropy": [
        "344000",
        "J/kmol/K"
    ],
    "HeatOfFusionAtMeltingPoint": [
        "8760000",
        "J/kmol"
    ],
    "HeatOfCombustion": [
        "-2.01E+09",
        "J/kmol"
    ],
    "LiquidDensity": [
        {
            "eqno": "105",
            "A": "0.982868",
            "B": "0.255663",
            "C": "630",
            "D": "0.231239",
            "Tmin": "268.65",
            "Tmax": "610.98"
        },
        "kmol/m3"
    ],
    "VaporPressure": [
        {
            "eqno": "101",
            "A": "101.1268",
            "B": "-9896.461",
            "C": "-11.12231",
            "D": "4.333878E-06",
            "E": "2",
            "Tmin": "268.65",
            "Tmax": "630"
        },
        "Pa"
    ],
    "HeatOfVaporization": [
        {
            "eqno": "106",
            "A": "8.3715E+07",
            "B": "1.1304",
            "C": "-1.7736",
            "D": "1.7333",
            "E": "-0.66961",
            "Tmin": "268.65",
            "Tmax": "610.98"
        },
        "J/kmol"
    ],
    "LiquidHeatCapacityCp": [
        {
            "eqno": "4",
            "A": "65879.9",
            "B": "415.0007",
            "C": "0.00004583",
            "D": "2.109E-09",
            "E": "-0.0000030816",
            "Tmin": "250",
            "Tmax": "465"
        },
        "J/kmol/K"
    ],
    "IdealGasHeatCapacityCp": [
        {
            "eqno": "16",
            "A": "50351",
            "B": "-464.92",
            "C": "12.353",
            "D": "0.00032078",
            "E": "-1.1521E-07",
            "Tmin": "273",
            "Tmax": "1200"
        },
        "J/kmol/K"
    ],
    "SecondVirialCoefficient": [
        {
            "eqno": "104",
            "A": "0.16573",
            "B": "-171.59",
            "C": "-61.863",
            "D": "-10326",
            "E": "-8446.2",
            "Tmin": "315",
            "Tmax": "1500"
        },
        "m3/kmol"
    ],
    "LiquidViscosity": [
        {
            "eqno": "101",
            "A": "-8.8113",
            "B": "2947",
            "C": "-0.99316",
            "D": "4.0603E-07",
            "E": "2",
            "Tmin": "268.65",
            "Tmax": "431.15"
        },
        "Pa.s"
    ],
    "VaporViscosity": [
        {
            "eqno": "102",
            "A": "2.1919E-07",
            "B": "0.70935",
            "C": "211",
            "D": "-8775.4",
            "Tmin": "268.65",
            "Tmax": "1000"
        },
        "Pa.s"
    ],
    "LiquidThermalConductivity": [
        {
            "eqno": "16",
            "A": "-0.011378",
            "B": "-96.849",
            "C": "-0.47605",
            "D": "-0.0029428",
            "E": "4.7129E-07",
            "Tmin": "268.65",
            "Tmax": "431.15"
        },
        "W/m/K"
    ],
    "VaporThermalConductivity": [
        {
            "eqno": "102",
            "A": "0.00021463",
            "B": "0.94857",
            "C": "622.07",
            "D": "15372",
            "Tmin": "431.15",
            "Tmax": "1000"
        },
        "W/m/K"
    ],
    "RPPHeatCapacityCp": [
        {
            "eqno": "4",
            "A": "-3617.1",
            "B": "432.68",
            "C": "-0.26594",
            "D": "0.000065752",
            "Tmin": "273",
            "Tmax": "1200"
        },
        "J/kmol/K"
    ],
    "RelativeStaticPermittivity": [
        {
            "eqno": "120",
            "A": "-8.924",
            "B": "-9007",
            "C": "0",
            "Tmin": "223.15",
            "Tmax": "698"
        },
        "_"
    ],
    "AntoineVaporPressure": [
        {
            "eqno": "10",
            "A": "22.175",
            "B": "3679.7",
            "C": "-85.876",
            "Tmin": "382.76",
            "Tmax": "557.73"
        },
        "Pa"
    ],
    "LiquidViscosityRPS": [
        {
            "eqno": "12",
            "A": "3.6732",
            "B": "-0.027534",
            "Tmin": "268.65",
            "Tmax": "431.15"
        },
        "Pa.s"
    ],
    "COSTALDVolume": [
        "0.267184",
        "m3/kmol"
    ],
    "DiameterLJ": [
        "5.934566E-10",
        "m"
    ],
    "EnergyLJ": [
        "331.2366",
        "K"
    ],
    "RacketParameter": [
        "0.262",
        "_"
    ],
    "FullerVolume": [
        "51.847",
        "_"
    ],
    "Parachor": [
        "0.0337966",
        "kg0.25.m3/s0.5/kmol"
    ],
    "SpecificGravity": [
        "0.94",
        "_"
    ],
    "Charge": [
        "0",
        "_"
    ],
    "CostaldAcentricFactor": [
        "0.604",
        "_"
    ],
    "WilsonVolume": [
        "0.082206",
        "m3/kmol"
    ],
    "ChaoSeaderAcentricFactor": [
        "0.604",
        "_"
    ],
    "ChaoSeaderSolubilityParameter": [
        "25930",
        "J0.5/m1.5"
    ],
    "ChaoSeaderLiquidVolume": [
        "0.082206",
        "m3/kmol"
    ],
    "RadiusOfGyration": [
        "3.035E-10",
        "m"
    ],
    "VanDerWaalsVolume": [
        "0.05025",
        "m3/kmol"
    ],
    "VanDerWaalsArea": [
        "7.27E+08",
        "m2/kmol"
    ],
    "MatthiasCopemanC1": [
        "1.36403",
        "_"
    ],
    "SolidDensity": [
        {
            "eqno": "100",
            "A": "16.367",
            "B": "-0.0076153",
            "C": "0",
            "D": "0",
            "E": "0",
            "Tmin": "107.46",
            "Tmax": "268.65"
        },
        "kmol/m3"
    ],
    "SurfaceTension": [
        {
            "eqno": "16",
            "A": "-0.011359",
            "B": "194.04",
            "C": "-4.2168",
            "D": "0.0039447",
            "E": "-0.0000077857",
            "Tmin": "268.65",
            "Tmax": "610.98"
        },
        "N/m"
    ],
    "MatthiasCopemanC2": [
        "0",
        "_"
    ],
    "UniquacR": [
        "3.7825",
        "_"
    ],
    "UniquacQ": [
        "3.524",
        "_"
    ],
    "ApiSrkS2": [
        "0.141244",
        "_"
    ],
    "MatthiasCopemanC3": [
        "0",
        "_"
    ],
    "SolidHeatCapacityCp": [
        {
            "eqno": "102",
            "A": "1490",
            "B": "0.79267",
            "C": "0",
            "D": "0",
            "Tmin": "50",
            "Tmax": "268.65"
        },
        "J/kmol/K"
    ],
    "UniquacQP": [
        "4.936",
        "_"
    ],
    "ApiSrkS1": [
        "0.529899",
        "_"
    ]
}