{
    "CAS": "110-16-7",
    "LibraryIndex": "1286",
    "CompoundID": "Maleic acid",
    "StructureFormula": "HOOCCHCHCOOH",
    "Family": "52",
    "CriticalTemperature": [
        "773",
        "K"
    ],
    "CriticalPressure": [
        "4990000",
        "Pa"
    ],
    "CriticalVolume": [
        "0.297",
        "m3/kmol"
    ],
    "CriticalCompressibility": [
        "0.231",
        "_"
    ],
    "NormalBoilingPointTemperature": [
        "411",
        "K"
    ],
    "NormalMeltingPointTemperature": [
        "403.45",
        "K"
    ],
    "TriplePointTemperature": [
        "403.8",
        "K"
    ],
    "TriplePointPressure": [
        "98.6734",
        "Pa"
    ],
    "MolecularWeight": [
        "116.072",
        "kg/kmol"
    ],
    "LiquidVolumeAtNormalBoilingPoint": [
        "0.090835",
        "m3/kmol"
    ],
    "AcentricityFactor": [
        "0.997587",
        "_"
    ],
    "SolubilityParameter": [
        "30550",
        "J0.5/m1.5"
    ],
    "DipoleMoment": [
        "1.06E-29",
        "Coulomb.m"
    ],
    "HeatOfFormation": [
        "-6.794E+08",
        "J/kmol"
    ],
    "GibbsEnergyOfFormation": [
        "-5.96E+08",
        "J/kmol"
    ],
    "AbsEntropy": [
        "416000",
        "J/kmol/K"
    ],
    "HeatOfFusionAtMeltingPoint": [
        "3.47E+07",
        "J/kmol"
    ],
    "HeatOfCombustion": [
        "-1.2684E+09",
        "J/kmol"
    ],
    "LiquidDensity": [
        {
            "eqno": "105",
            "A": "0.77641",
            "B": "0.231",
            "C": "773",
            "D": "0.28571",
            "Tmin": "403.8",
            "Tmax": "773"
        },
        "kmol/m3"
    ],
    "VaporPressure": [
        {
            "eqno": "101",
            "A": "187.4602",
            "B": "-19104.39",
            "C": "-22.78106",
            "D": "6.967225E-06",
            "E": "2",
            "Tmin": "403.8",
            "Tmax": "773"
        },
        "Pa"
    ],
    "HeatOfVaporization": [
        {
            "eqno": "106",
            "A": "1.16446E+08",
            "B": "0.325842",
            "C": "-0.000233021",
            "D": "0.00216992",
            "E": "0.484323",
            "Tmin": "403.8",
            "Tmax": "773"
        },
        "J/kmol"
    ],
    "LiquidHeatCapacityCp": [
        {
            "eqno": "16",
            "A": "148240",
            "B": "706.52",
            "C": "4.046",
            "D": "0.018422",
            "E": "-0.000011933",
            "Tmin": "403.8",
            "Tmax": "579.75"
        },
        "J/kmol/K"
    ],
    "IdealGasHeatCapacityCp": [
        {
            "eqno": "16",
            "A": "60872",
            "B": "-493.34",
            "C": "12.58",
            "D": "-0.00028606",
            "E": "0.0000001493",
            "Tmin": "273",
            "Tmax": "1500"
        },
        "J/kmol/K"
    ],
    "SecondVirialCoefficient": [
        {
            "eqno": "104",
            "A": "0.37998",
            "B": "-379.85",
            "C": "-418.42",
            "D": "-567110",
            "E": "576970",
            "Tmin": "414",
            "Tmax": "1500"
        },
        "m3/kmol"
    ],
    "LiquidViscosity": [
        {
            "eqno": "101",
            "A": "-11.993",
            "B": "2508.3",
            "C": "0.079857",
            "D": "-1.8766E-08",
            "E": "2",
            "Tmin": "403.45",
            "Tmax": "565"
        },
        "Pa.s"
    ],
    "VaporViscosity": [
        {
            "eqno": "102",
            "A": "9.0189E-08",
            "B": "0.80995",
            "C": "111.91",
            "D": "-70.22",
            "Tmin": "403",
            "Tmax": "1000"
        },
        "Pa.s"
    ],
    "LiquidThermalConductivity": [
        {
            "eqno": "16",
            "A": "-0.061944",
            "B": "-160.86",
            "C": "-0.25643",
            "D": "-0.0021458",
            "E": "2.3954E-07",
            "Tmin": "403.8",
            "Tmax": "612"
        },
        "W/m/K"
    ],
    "VaporThermalConductivity": [
        {
            "eqno": "102",
            "A": "0.0000021963",
            "B": "1.4191",
            "C": "-285.03",
            "D": "84199",
            "Tmin": "469",
            "Tmax": "1000"
        },
        "W/m/K"
    ],
    "RPPHeatCapacityCp": [
        {
            "eqno": "4",
            "A": "13513",
            "B": "415.8",
            "C": "-0.29766",
            "D": "0.000084426",
            "Tmin": "273",
            "Tmax": "1500"
        },
        "J/kmol/K"
    ],
    "RelativeStaticPermittivity": [
        {
            "eqno": "120",
            "A": "-4.903144",
            "B": "-3000",
            "C": "-18",
            "Tmin": "274.15",
            "Tmax": "444.15"
        },
        "_"
    ],
    "AntoineVaporPressure": [
        {
            "eqno": "10",
            "A": "23.374",
            "B": "5133",
            "C": "-132.2",
            "Tmin": "477.36",
            "Tmax": "695.27"
        },
        "Pa"
    ],
    "LiquidViscosityRPS": [
        {
            "eqno": "12",
            "A": "-1.0564",
            "B": "-0.010763",
            "Tmin": "403.45",
            "Tmax": "565"
        },
        "Pa.s"
    ],
    "COSTALDVolume": [
        "0.300877",
        "m3/kmol"
    ],
    "DiameterLJ": [
        "7.224859E-10",
        "m"
    ],
    "EnergyLJ": [
        "258.283",
        "K"
    ],
    "RacketParameter": [
        "0.231",
        "_"
    ],
    "FullerVolume": [
        "97.28",
        "_"
    ],
    "Parachor": [
        "0.0397792",
        "kg0.25.m3/s0.5/kmol"
    ],
    "SpecificGravity": [
        "1.407506",
        "_"
    ],
    "Charge": [
        "0",
        "_"
    ],
    "CostaldAcentricFactor": [
        "0.997587",
        "_"
    ],
    "WilsonVolume": [
        "0.090835",
        "m3/kmol"
    ],
    "ChaoSeaderAcentricFactor": [
        "0.997587",
        "_"
    ],
    "ChaoSeaderSolubilityParameter": [
        "30550",
        "J0.5/m1.5"
    ],
    "ChaoSeaderLiquidVolume": [
        "0.090835",
        "m3/kmol"
    ],
    "RadiusOfGyration": [
        "4.221E-10",
        "m"
    ],
    "VanDerWaalsVolume": [
        "0.05642",
        "m3/kmol"
    ],
    "VanDerWaalsArea": [
        "8.28E+08",
        "m2/kmol"
    ],
    "MatthiasCopemanC1": [
        "1.41302",
        "_"
    ],
    "SolidDensity": [
        {
            "eqno": "2",
            "A": "13.698",
            "B": "-1.103E-09",
            "C": "0",
            "D": "0",
            "E": "0",
            "Tmin": "293.15",
            "Tmax": "302.65"
        },
        "kmol/m3"
    ],
    "SurfaceTension": [
        {
            "eqno": "16",
            "A": "-0.010076",
            "B": "568.91",
            "C": "-6.0243",
            "D": "0.0070715",
            "E": "-0.0000080291",
            "Tmin": "403.45",
            "Tmax": "773"
        },
        "N/m"
    ],
    "MatthiasCopemanC2": [
        "0",
        "_"
    ],
    "UniquacR": [
        "3.7193",
        "_"
    ],
    "UniquacQ": [
        "3.315",
        "_"
    ],
    "ApiSrkS2": [
        "0.141244",
        "_"
    ],
    "MatthiasCopemanC3": [
        "0",
        "_"
    ],
    "SolidHeatCapacityCp": [
        {
            "eqno": "100",
            "A": "21794",
            "B": "494.53",
            "C": "-0.98012",
            "D": "0.002955",
            "E": "-0.00000306",
            "Tmin": "60",
            "Tmax": "350"
        },
        "J/kmol/K"
    ],
    "UniquacQP": [
        "4.936",
        "_"
    ],
    "ApiSrkS1": [
        "0.529899",
        "_"
    ]
}