{
    "CAS": "110-74-7",
    "LibraryIndex": "1303",
    "CompoundID": "N-propyl formate",
    "StructureFormula": "HCOOCH2CH2CH3",
    "Family": "55",
    "CriticalTemperature": [
        "538",
        "K"
    ],
    "CriticalPressure": [
        "4060000",
        "Pa"
    ],
    "CriticalVolume": [
        "0.285",
        "m3/kmol"
    ],
    "CriticalCompressibility": [
        "0.259",
        "_"
    ],
    "NormalBoilingPointTemperature": [
        "354.69",
        "K"
    ],
    "NormalMeltingPointTemperature": [
        "180.25",
        "K"
    ],
    "TriplePointTemperature": [
        "180.25",
        "K"
    ],
    "TriplePointPressure": [
        "0.211011",
        "Pa"
    ],
    "MolecularWeight": [
        "88.106",
        "kg/kmol"
    ],
    "LiquidVolumeAtNormalBoilingPoint": [
        "0.09794",
        "m3/kmol"
    ],
    "AcentricityFactor": [
        "0.32",
        "_"
    ],
    "SolubilityParameter": [
        "18470",
        "J0.5/m1.5"
    ],
    "DipoleMoment": [
        "6.37E-30",
        "Coulomb.m"
    ],
    "HeatOfFormation": [
        "-4.076E+08",
        "J/kmol"
    ],
    "GibbsEnergyOfFormation": [
        "-2.936E+08",
        "J/kmol"
    ],
    "AbsEntropy": [
        "367800",
        "J/kmol/K"
    ],
    "HeatOfFusionAtMeltingPoint": [
        "1.32E+07",
        "J/kmol"
    ],
    "HeatOfCombustion": [
        "-2.041E+09",
        "J/kmol"
    ],
    "LiquidDensity": [
        {
            "eqno": "105",
            "A": "0.915",
            "B": "0.26134",
            "C": "538",
            "D": "0.28",
            "Tmin": "180.25",
            "Tmax": "538"
        },
        "kmol/m3"
    ],
    "VaporPressure": [
        {
            "eqno": "101",
            "A": "71.35267",
            "B": "-6244.56",
            "C": "-7.280094",
            "D": "4.220422E-06",
            "E": "2",
            "Tmin": "180.25",
            "Tmax": "538"
        },
        "Pa"
    ],
    "HeatOfVaporization": [
        {
            "eqno": "106",
            "A": "5.414398E+07",
            "B": "0.597341",
            "C": "-0.589234",
            "D": "1.004533",
            "E": "-0.602007",
            "Tmin": "180.25",
            "Tmax": "538"
        },
        "J/kmol"
    ],
    "LiquidHeatCapacityCp": [
        {
            "eqno": "16",
            "A": "76453",
            "B": "-41.853",
            "C": "10.797",
            "D": "0.0021776",
            "E": "0.0000016375",
            "Tmin": "188.3",
            "Tmax": "433.3"
        },
        "J/kmol/K"
    ],
    "IdealGasHeatCapacityCp": [
        {
            "eqno": "16",
            "A": "48655",
            "B": "-455.54",
            "C": "12.53",
            "D": "0.000075917",
            "E": "-4.246E-09",
            "Tmin": "298.15",
            "Tmax": "1500"
        },
        "J/kmol/K"
    ],
    "SecondVirialCoefficient": [
        {
            "eqno": "104",
            "A": "0.15811",
            "B": "-174.27",
            "C": "-31.648",
            "D": "-4516.6",
            "E": "3566.6",
            "Tmin": "269",
            "Tmax": "1883"
        },
        "m3/kmol"
    ],
    "LiquidViscosity": [
        {
            "eqno": "101",
            "A": "-51.649",
            "B": "2317.7",
            "C": "6.5556",
            "D": "-0.000012396",
            "E": "2",
            "Tmin": "180.25",
            "Tmax": "353.97"
        },
        "Pa.s"
    ],
    "VaporViscosity": [
        {
            "eqno": "102",
            "A": "6.0899E-07",
            "B": "0.58607",
            "C": "368.57",
            "D": "-171.06",
            "Tmin": "180.25",
            "Tmax": "1000"
        },
        "Pa.s"
    ],
    "LiquidThermalConductivity": [
        {
            "eqno": "16",
            "A": "0.017242",
            "B": "-22.474",
            "C": "-1.4478",
            "D": "-0.0011278",
            "E": "-0.0000020716",
            "Tmin": "180",
            "Tmax": "483.15"
        },
        "W/m/K"
    ],
    "VaporThermalConductivity": [
        {
            "eqno": "102",
            "A": "661.08",
            "B": "0.99232",
            "C": "5.8449E+09",
            "D": "-9.0597E+10",
            "Tmin": "350",
            "Tmax": "1000"
        },
        "W/m/K"
    ],
    "RPPHeatCapacityCp": [
        {
            "eqno": "4",
            "A": "-1865.2",
            "B": "457.73",
            "C": "-0.29209",
            "D": "0.000073654",
            "Tmin": "298.15",
            "Tmax": "1500"
        },
        "J/kmol/K"
    ],
    "RelativeStaticPermittivity": [
        {
            "eqno": "120",
            "A": "-6.820192",
            "B": "-3950",
            "C": "-23.7",
            "Tmin": "273.0389",
            "Tmax": "443.0389"
        },
        "_"
    ],
    "AntoineVaporPressure": [
        {
            "eqno": "10",
            "A": "21.052",
            "B": "2837.7",
            "C": "-56.289",
            "Tmin": "322.95",
            "Tmax": "483.15"
        },
        "Pa"
    ],
    "LiquidViscosityRPS": [
        {
            "eqno": "13",
            "A": "1.9885",
            "B": "-0.052442",
            "C": "0.000067436",
            "Tmin": "180.25",
            "Tmax": "353.97"
        },
        "Pa.s"
    ],
    "COSTALDVolume": [
        "0.28231",
        "m3/kmol"
    ],
    "DiameterLJ": [
        "6.21203E-10",
        "m"
    ],
    "EnergyLJ": [
        "271.378",
        "K"
    ],
    "RacketParameter": [
        "0.254",
        "_"
    ],
    "FullerVolume": [
        "94.3",
        "_"
    ],
    "Parachor": [
        "0.0387",
        "kg0.25.m3/s0.5/kmol"
    ],
    "SpecificGravity": [
        "0.910145",
        "_"
    ],
    "Charge": [
        "0",
        "_"
    ],
    "CostaldAcentricFactor": [
        "0.314",
        "_"
    ],
    "WilsonVolume": [
        "0.0979424",
        "m3/kmol"
    ],
    "ChaoSeaderAcentricFactor": [
        "0.314",
        "_"
    ],
    "ChaoSeaderSolubilityParameter": [
        "18339.9",
        "J0.5/m1.5"
    ],
    "ChaoSeaderLiquidVolume": [
        "0.0979424",
        "m3/kmol"
    ],
    "RadiusOfGyration": [
        "3.364E-10",
        "m"
    ],
    "VanDerWaalsVolume": [
        "0.05297",
        "m3/kmol"
    ],
    "VanDerWaalsArea": [
        "7.79E+08",
        "m2/kmol"
    ],
    "MatthiasCopemanC1": [
        "0.91319",
        "_"
    ],
    "SolidDensity": [
        {
            "eqno": "2",
            "A": "14.696",
            "B": "-0.0089769",
            "Tmin": "72.1",
            "Tmax": "180.25"
        },
        "kmol/m3"
    ],
    "SurfaceTension": [
        {
            "eqno": "16",
            "A": "-0.017831",
            "B": "28.209",
            "C": "-2.943",
            "D": "0.00018306",
            "E": "-0.0000042883",
            "Tmin": "180.25",
            "Tmax": "538"
        },
        "N/m"
    ],
    "MatthiasCopemanC2": [
        "0.32658",
        "_"
    ],
    "UniquacR": [
        "3.4919",
        "_"
    ],
    "UniquacQ": [
        "3.116",
        "_"
    ],
    "ApiSrkS2": [
        "0.000612",
        "_"
    ],
    "MatthiasCopemanC3": [
        "-0.58645",
        "_"
    ],
    "SolidHeatCapacityCp": [
        {
            "eqno": "1",
            "A": "130880",
            "Tmin": "0",
            "Tmax": "0"
        },
        "J/kmol/K"
    ],
    "UniquacQP": [
        "2.684",
        "_"
    ],
    "ApiSrkS1": [
        "0.169684",
        "_"
    ]
}