{
    "CAS": "111-27-3",
    "LibraryIndex": "1114",
    "CompoundID": "1-hexanol",
    "StructureFormula": "CH3(CH2)5OH",
    "Family": "27",
    "CriticalTemperature": [
        "611.4",
        "K"
    ],
    "CriticalPressure": [
        "3510000",
        "Pa"
    ],
    "CriticalVolume": [
        "0.381",
        "m3/kmol"
    ],
    "CriticalCompressibility": [
        "0.263",
        "_"
    ],
    "NormalBoilingPointTemperature": [
        "430.44",
        "K"
    ],
    "NormalMeltingPointTemperature": [
        "228.55",
        "K"
    ],
    "TriplePointTemperature": [
        "228.55",
        "K"
    ],
    "TriplePointPressure": [
        "0.0295499",
        "Pa"
    ],
    "MolecularWeight": [
        "102.177",
        "kg/kmol"
    ],
    "LiquidVolumeAtNormalBoilingPoint": [
        "0.12519",
        "m3/kmol"
    ],
    "AcentricityFactor": [
        "0.58",
        "_"
    ],
    "SolubilityParameter": [
        "21830",
        "J0.5/m1.5"
    ],
    "DipoleMoment": [
        "5.5E-30",
        "Coulomb.m"
    ],
    "HeatOfFormation": [
        "-3.18E+08",
        "J/kmol"
    ],
    "GibbsEnergyOfFormation": [
        "-1.344E+08",
        "J/kmol"
    ],
    "AbsEntropy": [
        "440000",
        "J/kmol/K"
    ],
    "HeatOfFusionAtMeltingPoint": [
        "1.54E+07",
        "J/kmol"
    ],
    "HeatOfCombustion": [
        "-3.67439E+09",
        "J/kmol"
    ],
    "LiquidDensity": [
        {
            "eqno": "105",
            "A": "0.12172",
            "B": "0.11263",
            "C": "611.4",
            "D": "0.13194",
            "Tmin": "228.55",
            "Tmax": "610.3"
        },
        "kmol/m3"
    ],
    "VaporPressure": [
        {
            "eqno": "101",
            "A": "140.4065",
            "B": "-11996.05",
            "C": "-16.8497",
            "D": "6.25688E-06",
            "E": "2",
            "Tmin": "228.55",
            "Tmax": "610.3"
        },
        "Pa"
    ],
    "HeatOfVaporization": [
        {
            "eqno": "106",
            "A": "9.9912E+07",
            "B": "1.0345",
            "C": "-0.71214",
            "D": "0.038869",
            "E": "0.22103",
            "Tmin": "228.55",
            "Tmax": "610.3"
        },
        "J/kmol"
    ],
    "LiquidHeatCapacityCp": [
        {
            "eqno": "16",
            "A": "-13352",
            "B": "695.57",
            "C": "4.4864",
            "D": "0.026504",
            "E": "-0.000025444",
            "Tmin": "228.55",
            "Tmax": "460"
        },
        "J/kmol/K"
    ],
    "IdealGasHeatCapacityCp": [
        {
            "eqno": "16",
            "A": "93733",
            "B": "-618.92",
            "C": "13.098",
            "D": "-0.000028541",
            "E": "-8.6478E-09",
            "Tmin": "200",
            "Tmax": "1500"
        },
        "J/kmol/K"
    ],
    "SecondVirialCoefficient": [
        {
            "eqno": "104",
            "A": "0.28103",
            "B": "-313.61",
            "C": "-50.106",
            "D": "92563",
            "E": "-384560",
            "Tmin": "305.15",
            "Tmax": "1955.7"
        },
        "m3/kmol"
    ],
    "LiquidViscosity": [
        {
            "eqno": "101",
            "A": "-78.019",
            "B": "5186.5",
            "C": "9.8395",
            "D": "-0.0000094042",
            "E": "2",
            "Tmin": "243.15",
            "Tmax": "473.15"
        },
        "Pa.s"
    ],
    "VaporViscosity": [
        {
            "eqno": "102",
            "A": "2.3121E-07",
            "B": "0.66402",
            "C": "127.06",
            "D": "17987",
            "Tmin": "228.55",
            "Tmax": "1000"
        },
        "Pa.s"
    ],
    "LiquidThermalConductivity": [
        {
            "eqno": "16",
            "A": "0.09203",
            "B": "1297.6",
            "C": "-15.712",
            "D": "0.045447",
            "E": "-0.000056017",
            "Tmin": "228.55",
            "Tmax": "575"
        },
        "W/m/K"
    ],
    "VaporThermalConductivity": [
        {
            "eqno": "102",
            "A": "-2143900",
            "B": "-0.092957",
            "C": "1.682E+08",
            "D": "-1.0339E+13",
            "Tmin": "290.96",
            "Tmax": "1000"
        },
        "W/m/K"
    ],
    "RPPHeatCapacityCp": [
        {
            "eqno": "100",
            "A": "56405",
            "B": "141.84",
            "C": "0.99233",
            "D": "-0.0014257",
            "E": "5.8077E-07",
            "Tmin": "200",
            "Tmax": "1000"
        },
        "J/kmol/K"
    ],
    "RelativeStaticPermittivity": [
        {
            "eqno": "120",
            "A": "-12.45024",
            "B": "-6650",
            "C": "-39.9",
            "Tmin": "279.15",
            "Tmax": "449.15"
        },
        "_"
    ],
    "AntoineVaporPressure": [
        {
            "eqno": "10",
            "A": "20.645",
            "B": "2705.5",
            "C": "-133.98",
            "Tmin": "369.19",
            "Tmax": "550.02"
        },
        "Pa"
    ],
    "LiquidViscosityRPS": [
        {
            "eqno": "12",
            "A": "1.3202",
            "B": "-0.022361",
            "Tmin": "243.15",
            "Tmax": "473.15"
        },
        "Pa.s"
    ],
    "COSTALDVolume": [
        "0.393259",
        "m3/kmol"
    ],
    "DiameterLJ": [
        "6.718511E-10",
        "m"
    ],
    "EnergyLJ": [
        "325.8963",
        "K"
    ],
    "RacketParameter": [
        "0.263",
        "_"
    ],
    "FullerVolume": [
        "133.85",
        "_"
    ],
    "Parachor": [
        "0.0505795",
        "kg0.25.m3/s0.5/kmol"
    ],
    "SpecificGravity": [
        "0.822536",
        "_"
    ],
    "Charge": [
        "0",
        "_"
    ],
    "CostaldAcentricFactor": [
        "0.58",
        "_"
    ],
    "WilsonVolume": [
        "0.12519",
        "m3/kmol"
    ],
    "ChaoSeaderAcentricFactor": [
        "0.58",
        "_"
    ],
    "ChaoSeaderSolubilityParameter": [
        "21830",
        "J0.5/m1.5"
    ],
    "ChaoSeaderLiquidVolume": [
        "0.12519",
        "m3/kmol"
    ],
    "RadiusOfGyration": [
        "4.144E-10",
        "m"
    ],
    "VanDerWaalsVolume": [
        "0.0728599",
        "m3/kmol"
    ],
    "VanDerWaalsArea": [
        "1.033E+09",
        "m2/kmol"
    ],
    "MatthiasCopemanC1": [
        "1.34",
        "_"
    ],
    "SolidDensity": [
        {
            "eqno": "2",
            "A": "9.939",
            "B": "-0.00020832",
            "C": "0",
            "D": "0",
            "E": "0",
            "Tmin": "228.55",
            "Tmax": "238.05"
        },
        "kmol/m3"
    ],
    "SurfaceTension": [
        {
            "eqno": "16",
            "A": "-0.035783",
            "B": "66.822",
            "C": "-3.0656",
            "D": "0.00092964",
            "E": "-0.000002544",
            "Tmin": "228.55",
            "Tmax": "610.3"
        },
        "N/m"
    ],
    "MatthiasCopemanC2": [
        "0",
        "_"
    ],
    "UniquacR": [
        "5.2731",
        "_"
    ],
    "UniquacQ": [
        "4.748",
        "_"
    ],
    "ApiSrkS2": [
        "0.04628",
        "_"
    ],
    "MatthiasCopemanC3": [
        "0",
        "_"
    ],
    "SolidHeatCapacityCp": [
        {
            "eqno": "100",
            "A": "-19775",
            "B": "1482.2",
            "C": "-5.3111",
            "D": "0.0052486",
            "E": "0.000017593",
            "Tmin": "15",
            "Tmax": "200"
        },
        "J/kmol/K"
    ],
    "UniquacQP": [
        "4.936",
        "_"
    ],
    "ApiSrkS1": [
        "0.886894",
        "_"
    ]
}