{
    "CAS": "111-41-1",
    "LibraryIndex": "2732",
    "CompoundID": "N-aminoethyl ethanolamine",
    "StructureFormula": "H2NCH2CH2NHCH2CH2OH",
    "Family": "68",
    "CriticalTemperature": [
        "698",
        "K"
    ],
    "CriticalPressure": [
        "4460000",
        "Pa"
    ],
    "CriticalVolume": [
        "0.387",
        "m3/kmol"
    ],
    "CriticalCompressibility": [
        "0.252",
        "_"
    ],
    "NormalBoilingPointTemperature": [
        "517",
        "K"
    ],
    "NormalMeltingPointTemperature": [
        "234",
        "K"
    ],
    "TriplePointTemperature": [
        "234.15",
        "K"
    ],
    "TriplePointPressure": [
        "0.0524649",
        "Pa"
    ],
    "MolecularWeight": [
        "104.151",
        "kg/kmol"
    ],
    "LiquidVolumeAtNormalBoilingPoint": [
        "0.101519",
        "m3/kmol"
    ],
    "AcentricityFactor": [
        "1.04726",
        "_"
    ],
    "SolubilityParameter": [
        "29230",
        "J0.5/m1.5"
    ],
    "DipoleMoment": [
        "6.34E-30",
        "Coulomb.m"
    ],
    "HeatOfFormation": [
        "-1.91E+08",
        "J/kmol"
    ],
    "GibbsEnergyOfFormation": [
        "3810000",
        "J/kmol"
    ],
    "AbsEntropy": [
        "447000",
        "J/kmol/K"
    ],
    "HeatOfFusionAtMeltingPoint": [
        "0",
        "J/kmol"
    ],
    "HeatOfCombustion": [
        "-2.74E+09",
        "J/kmol"
    ],
    "LiquidDensity": [
        {
            "eqno": "105",
            "A": "0.76828",
            "B": "0.25238",
            "C": "698",
            "D": "0.28565",
            "Tmin": "273.15",
            "Tmax": "675.64"
        },
        "kmol/m3"
    ],
    "VaporPressure": [
        {
            "eqno": "101",
            "A": "214.43",
            "B": "-18769",
            "C": "-27.15",
            "D": "0.00001141",
            "E": "2",
            "Tmin": "273.15",
            "Tmax": "698"
        },
        "Pa"
    ],
    "HeatOfVaporization": [
        {
            "eqno": "106",
            "A": "1.2005E+08",
            "B": "0.3465",
            "C": "0.971",
            "D": "-1.7132",
            "E": "0.81091",
            "Tmin": "273.15",
            "Tmax": "675.64"
        },
        "J/kmol"
    ],
    "LiquidHeatCapacityCp": [
        {
            "eqno": "16",
            "A": "65604",
            "B": "-121.74",
            "C": "11.802",
            "D": "0.0023485",
            "E": "-7.9478E-07",
            "Tmin": "349",
            "Tmax": "519"
        },
        "J/kmol/K"
    ],
    "IdealGasHeatCapacityCp": [
        {
            "eqno": "16",
            "A": "75533",
            "B": "-495.37",
            "C": "12.77",
            "D": "0.00015714",
            "E": "-4.9852E-08",
            "Tmin": "273",
            "Tmax": "1500"
        },
        "J/kmol/K"
    ],
    "SecondVirialCoefficient": [
        {
            "eqno": "104",
            "A": "0.088651",
            "B": "-82.595",
            "C": "-177.94",
            "D": "449510",
            "E": "-2249800",
            "Tmin": "349",
            "Tmax": "2000"
        },
        "m3/kmol"
    ],
    "LiquidViscosity": [
        {
            "eqno": "101",
            "A": "-27.66295",
            "B": "5326.5",
            "C": "1.362383",
            "D": "-1.706454E-06",
            "E": "2",
            "Tmin": "273.15",
            "Tmax": "517"
        },
        "Pa.s"
    ],
    "VaporViscosity": [
        {
            "eqno": "102",
            "A": "1.2606E-07",
            "B": "0.76222",
            "C": "173.4",
            "D": "-8594.2",
            "Tmin": "273.15",
            "Tmax": "1000"
        },
        "Pa.s"
    ],
    "LiquidThermalConductivity": [
        {
            "eqno": "16",
            "A": "-0.1257",
            "B": "-10.607",
            "C": "-0.88928",
            "D": "-0.00060102",
            "E": "-5.9478E-07",
            "Tmin": "273",
            "Tmax": "517"
        },
        "W/m/K"
    ],
    "VaporThermalConductivity": [
        {
            "eqno": "102",
            "A": "0.00019261",
            "B": "0.93731",
            "C": "615.43",
            "D": "23918",
            "Tmin": "517",
            "Tmax": "1000"
        },
        "W/m/K"
    ],
    "RPPHeatCapacityCp": [
        {
            "eqno": "4",
            "A": "2031.6",
            "B": "577.66",
            "C": "-0.34597",
            "D": "0.000080678",
            "Tmin": "273",
            "Tmax": "1500"
        },
        "J/kmol/K"
    ],
    "RelativeStaticPermittivity": [
        {
            "eqno": "120",
            "A": "-8.924",
            "B": "-9007",
            "C": "0",
            "Tmin": "223.15",
            "Tmax": "698"
        },
        "_"
    ],
    "AntoineVaporPressure": [
        {
            "eqno": "10",
            "A": "24.561",
            "B": "5615.5",
            "C": "-88.315",
            "Tmin": "273.15",
            "Tmax": "698"
        },
        "Pa"
    ],
    "LiquidViscosityRPS": [
        {
            "eqno": "12",
            "A": "7.9594",
            "B": "-0.034824",
            "Tmin": "273.15",
            "Tmax": "517"
        },
        "Pa.s"
    ],
    "COSTALDVolume": [
        "0.363122",
        "m3/kmol"
    ],
    "DiameterLJ": [
        "7.108882E-10",
        "m"
    ],
    "EnergyLJ": [
        "319.0146",
        "K"
    ],
    "RacketParameter": [
        "0.252",
        "_"
    ],
    "FullerVolume": [
        "95.088",
        "_"
    ],
    "Parachor": [
        "0.04649",
        "kg0.25.m3/s0.5/kmol"
    ],
    "SpecificGravity": [
        "1.0254",
        "_"
    ],
    "Charge": [
        "0",
        "_"
    ],
    "CostaldAcentricFactor": [
        "1.04726",
        "_"
    ],
    "WilsonVolume": [
        "0.101519",
        "m3/kmol"
    ],
    "ChaoSeaderAcentricFactor": [
        "1.04726",
        "_"
    ],
    "ChaoSeaderSolubilityParameter": [
        "29230",
        "J0.5/m1.5"
    ],
    "ChaoSeaderLiquidVolume": [
        "0.101519",
        "m3/kmol"
    ],
    "RadiusOfGyration": [
        "3.821E-10",
        "m"
    ],
    "VanDerWaalsVolume": [
        "0.06758",
        "m3/kmol"
    ],
    "VanDerWaalsArea": [
        "9.59E+08",
        "m2/kmol"
    ],
    "MatthiasCopemanC1": [
        "1.9",
        "_"
    ],
    "SolidDensity": [
        {
            "eqno": "2",
            "A": "11.8",
            "B": "-1.6252E-16",
            "C": "0",
            "D": "0",
            "E": "0",
            "Tmin": "0",
            "Tmax": "9.5"
        },
        "kmol/m3"
    ],
    "SurfaceTension": [
        {
            "eqno": "16",
            "A": "-0.046419",
            "B": "12.352",
            "C": "-2.0792",
            "D": "-0.001082",
            "E": "-0.0000005495",
            "Tmin": "273.15",
            "Tmax": "675.64"
        },
        "N/m"
    ],
    "MatthiasCopemanC2": [
        "0",
        "_"
    ],
    "UniquacR": [
        "4.925",
        "_"
    ],
    "UniquacQ": [
        "4.452",
        "_"
    ],
    "ApiSrkS2": [
        "0.141244",
        "_"
    ],
    "MatthiasCopemanC3": [
        "0",
        "_"
    ],
    "SolidHeatCapacityCp": [
        {
            "eqno": "100",
            "A": "4677.2",
            "B": "636.48",
            "C": "-1.3531",
            "D": "0.0038102",
            "E": "-0.0000047797",
            "Tmin": "50",
            "Tmax": "234.15"
        },
        "J/kmol/K"
    ],
    "UniquacQP": [
        "4.936",
        "_"
    ],
    "ApiSrkS1": [
        "0.529899",
        "_"
    ]
}