{
    "CAS": "111-31-9",
    "LibraryIndex": "1807",
    "CompoundID": "N-hexyl mercaptan",
    "StructureFormula": "CH3(CH2)5SH",
    "Family": "41",
    "CriticalTemperature": [
        "622",
        "K"
    ],
    "CriticalPressure": [
        "3025000",
        "Pa"
    ],
    "CriticalVolume": [
        "0.412",
        "m3/kmol"
    ],
    "CriticalCompressibility": [
        "0.245",
        "_"
    ],
    "NormalBoilingPointTemperature": [
        "424.15",
        "K"
    ],
    "NormalMeltingPointTemperature": [
        "192.15",
        "K"
    ],
    "TriplePointTemperature": [
        "192.62",
        "K"
    ],
    "TriplePointPressure": [
        "0.0130959",
        "Pa"
    ],
    "MolecularWeight": [
        "118.24",
        "kg/kmol"
    ],
    "LiquidVolumeAtNormalBoilingPoint": [
        "0.141006",
        "m3/kmol"
    ],
    "AcentricityFactor": [
        "0.369",
        "_"
    ],
    "SolubilityParameter": [
        "17450",
        "J0.5/m1.5"
    ],
    "DipoleMoment": [
        "5.17E-30",
        "Coulomb.m"
    ],
    "HeatOfFormation": [
        "-1.292E+08",
        "J/kmol"
    ],
    "GibbsEnergyOfFormation": [
        "2.77E+07",
        "J/kmol"
    ],
    "AbsEntropy": [
        "454600",
        "J/kmol/K"
    ],
    "HeatOfFusionAtMeltingPoint": [
        "1.801E+07",
        "J/kmol"
    ],
    "HeatOfCombustion": [
        "-4.176E+09",
        "J/kmol"
    ],
    "LiquidDensity": [
        {
            "eqno": "105",
            "A": "0.60827",
            "B": "0.26212",
            "C": "623.01",
            "D": "0.27785",
            "Tmin": "192.62",
            "Tmax": "623"
        },
        "kmol/m3"
    ],
    "VaporPressure": [
        {
            "eqno": "101",
            "A": "102.0208",
            "B": "-8530.272",
            "C": "-11.91139",
            "D": "8.521739E-06",
            "E": "2",
            "Tmin": "192.62",
            "Tmax": "623"
        },
        "Pa"
    ],
    "HeatOfVaporization": [
        {
            "eqno": "106",
            "A": "6.053718E+07",
            "B": "0.532372",
            "C": "-0.222059",
            "D": "0.0696209",
            "E": "-0.00101028",
            "Tmin": "192.62",
            "Tmax": "600.35"
        },
        "J/kmol"
    ],
    "LiquidHeatCapacityCp": [
        {
            "eqno": "16",
            "A": "168110",
            "B": "243.92",
            "C": "7.741",
            "D": "0.0099925",
            "E": "-0.0000054522",
            "Tmin": "192.62",
            "Tmax": "510"
        },
        "J/kmol/K"
    ],
    "IdealGasHeatCapacityCp": [
        {
            "eqno": "16",
            "A": "116170",
            "B": "-711.75",
            "C": "13.18",
            "D": "-0.000044297",
            "E": "1.0562E-09",
            "Tmin": "200",
            "Tmax": "1500"
        },
        "J/kmol/K"
    ],
    "SecondVirialCoefficient": [
        {
            "eqno": "104",
            "A": "0.28791",
            "B": "-359.98",
            "C": "-70.803",
            "D": "-33240",
            "E": "54069",
            "Tmin": "311.5",
            "Tmax": "1991.5"
        },
        "m3/kmol"
    ],
    "LiquidViscosity": [
        {
            "eqno": "101",
            "A": "-35.723",
            "B": "1823.3",
            "C": "4.0853",
            "D": "-0.0000098564",
            "E": "2",
            "Tmin": "192.62",
            "Tmax": "425.81"
        },
        "Pa.s"
    ],
    "VaporViscosity": [
        {
            "eqno": "102",
            "A": "6.7616E-08",
            "B": "0.85134",
            "C": "101.57",
            "D": "-4277.1",
            "Tmin": "192.62",
            "Tmax": "1000"
        },
        "Pa.s"
    ],
    "LiquidThermalConductivity": [
        {
            "eqno": "16",
            "A": "-0.076932",
            "B": "5.5076",
            "C": "-1.3601",
            "D": "-0.00033003",
            "E": "-0.000001155",
            "Tmin": "192.62",
            "Tmax": "425.81"
        },
        "W/m/K"
    ],
    "VaporThermalConductivity": [
        {
            "eqno": "102",
            "A": "0.090806",
            "B": "0.27994",
            "C": "4707",
            "D": "1982000",
            "Tmin": "425.81",
            "Tmax": "1000"
        },
        "W/m/K"
    ],
    "RPPHeatCapacityCp": [
        {
            "eqno": "4",
            "A": "23098",
            "B": "542.53",
            "C": "-0.23254",
            "D": "0.000032568",
            "Tmin": "200",
            "Tmax": "1500"
        },
        "J/kmol/K"
    ],
    "RelativeStaticPermittivity": [
        {
            "eqno": "120",
            "A": "-4.77",
            "B": "-2825",
            "C": "-16.95",
            "Tmin": "270",
            "Tmax": "440"
        },
        "_"
    ],
    "AntoineVaporPressure": [
        {
            "eqno": "10",
            "A": "20.988",
            "B": "3419.8",
            "C": "-64.357",
            "Tmin": "373.83",
            "Tmax": "555.05"
        },
        "Pa"
    ],
    "LiquidViscosityRPS": [
        {
            "eqno": "12",
            "A": "-3.0571",
            "B": "-0.013495",
            "Tmin": "192.62",
            "Tmax": "425.81"
        },
        "Pa.s"
    ],
    "COSTALDVolume": [
        "0.432645",
        "m3/kmol"
    ],
    "DiameterLJ": [
        "7.508354E-10",
        "m"
    ],
    "EnergyLJ": [
        "256.863",
        "K"
    ],
    "RacketParameter": [
        "0.245",
        "_"
    ],
    "FullerVolume": [
        "137.185",
        "_"
    ],
    "Parachor": [
        "0.0570385",
        "kg0.25.m3/s0.5/kmol"
    ],
    "SpecificGravity": [
        "0.84617",
        "_"
    ],
    "Charge": [
        "0",
        "_"
    ],
    "CostaldAcentricFactor": [
        "0.369",
        "_"
    ],
    "WilsonVolume": [
        "0.141006",
        "m3/kmol"
    ],
    "ChaoSeaderAcentricFactor": [
        "0.369",
        "_"
    ],
    "ChaoSeaderSolubilityParameter": [
        "17450",
        "J0.5/m1.5"
    ],
    "ChaoSeaderLiquidVolume": [
        "0.141006",
        "m3/kmol"
    ],
    "RadiusOfGyration": [
        "4.252E-10",
        "m"
    ],
    "VanDerWaalsVolume": [
        "0.07963",
        "m3/kmol"
    ],
    "VanDerWaalsArea": [
        "1.12E+09",
        "m2/kmol"
    ],
    "MatthiasCopemanC1": [
        "1.03043",
        "_"
    ],
    "SolidDensity": [
        {
            "eqno": "2",
            "A": "9.9499",
            "B": "-0.0064569",
            "C": "0",
            "D": "0",
            "E": "0",
            "Tmin": "77.05",
            "Tmax": "192.62"
        },
        "kmol/m3"
    ],
    "SurfaceTension": [
        {
            "eqno": "16",
            "A": "-0.043732",
            "B": "-13.608",
            "C": "-2.1183",
            "D": "-0.001643",
            "E": "5.7805E-08",
            "Tmin": "192.62",
            "Tmax": "600.35"
        },
        "N/m"
    ],
    "MatthiasCopemanC2": [
        "0",
        "_"
    ],
    "UniquacR": [
        "5.2497",
        "_"
    ],
    "UniquacQ": [
        "4.376",
        "_"
    ],
    "ApiSrkS2": [
        "0.141244",
        "_"
    ],
    "MatthiasCopemanC3": [
        "0",
        "_"
    ],
    "SolidHeatCapacityCp": [
        {
            "eqno": "100",
            "A": "-19026",
            "B": "1622.7",
            "C": "-5.5711",
            "D": "-0.0016101",
            "E": "0.00005357",
            "Tmin": "16.73",
            "Tmax": "186.33"
        },
        "J/kmol/K"
    ],
    "UniquacQP": [
        "4.936",
        "_"
    ],
    "ApiSrkS1": [
        "0.529899",
        "_"
    ]
}