{
    "CAS": "111-34-2",
    "LibraryIndex": "1447",
    "CompoundID": "Butyl vinyl ether",
    "StructureFormula": "C4H9OCHCH2",
    "Family": "61",
    "CriticalTemperature": [
        "540.5",
        "K"
    ],
    "CriticalPressure": [
        "3200000",
        "Pa"
    ],
    "CriticalVolume": [
        "0.38362",
        "m3/kmol"
    ],
    "CriticalCompressibility": [
        "0.273",
        "_"
    ],
    "NormalBoilingPointTemperature": [
        "367.131",
        "K"
    ],
    "NormalMeltingPointTemperature": [
        "181.15",
        "K"
    ],
    "TriplePointTemperature": [
        "181.15",
        "K"
    ],
    "TriplePointPressure": [
        "0.134811",
        "Pa"
    ],
    "MolecularWeight": [
        "100.163",
        "kg/kmol"
    ],
    "LiquidVolumeAtNormalBoilingPoint": [
        "0.130251",
        "m3/kmol"
    ],
    "AcentricityFactor": [
        "0.358",
        "_"
    ],
    "SolubilityParameter": [
        "16460",
        "J0.5/m1.5"
    ],
    "DipoleMoment": [
        "4.16955E-30",
        "Coulomb.m"
    ],
    "HeatOfFormation": [
        "-1.83E+08",
        "J/kmol"
    ],
    "GibbsEnergyOfFormation": [
        "-3.61974E+07",
        "J/kmol"
    ],
    "AbsEntropy": [
        "428000",
        "J/kmol/K"
    ],
    "HeatOfFusionAtMeltingPoint": [
        "1.38E+07",
        "J/kmol"
    ],
    "HeatOfCombustion": [
        "-3.59144E+09",
        "J/kmol"
    ],
    "LiquidDensity": [
        {
            "eqno": "105",
            "A": "0.51202",
            "B": "0.22443",
            "C": "540.5",
            "D": "0.25269",
            "Tmin": "181.15",
            "Tmax": "517.32"
        },
        "kmol/m3"
    ],
    "VaporPressure": [
        {
            "eqno": "101",
            "A": "80.48089",
            "B": "-6835.53",
            "C": "-8.641032",
            "D": "5.192611E-06",
            "E": "2",
            "Tmin": "181.15",
            "Tmax": "536"
        },
        "Pa"
    ],
    "HeatOfVaporization": [
        {
            "eqno": "106",
            "A": "5.9857E+07",
            "B": "1.4054",
            "C": "-2.9112",
            "D": "3.3585",
            "E": "-1.4378",
            "Tmin": "181.15",
            "Tmax": "536"
        },
        "J/kmol"
    ],
    "LiquidHeatCapacityCp": [
        {
            "eqno": "16",
            "A": "179060",
            "B": "294.15",
            "C": "4.464",
            "D": "0.023293",
            "E": "-0.000021892",
            "Tmin": "225",
            "Tmax": "366.97"
        },
        "J/kmol/K"
    ],
    "IdealGasHeatCapacityCp": [
        {
            "eqno": "16",
            "A": "70271",
            "B": "-440.11",
            "C": "12.531",
            "D": "0.00054467",
            "E": "-2.1666E-07",
            "Tmin": "273",
            "Tmax": "1500"
        },
        "J/kmol/K"
    ],
    "SecondVirialCoefficient": [
        {
            "eqno": "104",
            "A": "0.2416",
            "B": "-256",
            "C": "-40.57",
            "D": "859.83",
            "E": "-11281",
            "Tmin": "268",
            "Tmax": "2000"
        },
        "m3/kmol"
    ],
    "LiquidViscosity": [
        {
            "eqno": "101",
            "A": "-13.973",
            "B": "1139.1",
            "C": "0.44727",
            "D": "-0.0000011861",
            "E": "2",
            "Tmin": "181.15",
            "Tmax": "366.97"
        },
        "Pa.s"
    ],
    "VaporViscosity": [
        {
            "eqno": "102",
            "A": "9.4315E-08",
            "B": "0.78571",
            "C": "41.584",
            "D": "9100.4",
            "Tmin": "366.97",
            "Tmax": "1000"
        },
        "Pa.s"
    ],
    "LiquidThermalConductivity": [
        {
            "eqno": "16",
            "A": "-0.13174",
            "B": "16.987",
            "C": "-1.2513",
            "D": "-0.000050242",
            "E": "-0.000001447",
            "Tmin": "160.8",
            "Tmax": "420.8"
        },
        "W/m/K"
    ],
    "VaporThermalConductivity": [
        {
            "eqno": "102",
            "A": "0.00002407",
            "B": "1.1842",
            "C": "65.04",
            "D": "40153",
            "Tmin": "366.97",
            "Tmax": "1000"
        },
        "W/m/K"
    ],
    "RPPHeatCapacityCp": [
        {
            "eqno": "4",
            "A": "6738",
            "B": "536.06",
            "C": "-0.27187",
            "D": "0.000047059",
            "Tmin": "273",
            "Tmax": "1500"
        },
        "J/kmol/K"
    ],
    "RelativeStaticPermittivity": [
        {
            "eqno": "120",
            "A": "-2.907471",
            "B": "-1950",
            "C": "-11.7",
            "Tmin": "279.15",
            "Tmax": "449.15"
        },
        "_"
    ],
    "AntoineVaporPressure": [
        {
            "eqno": "10",
            "A": "21.122",
            "B": "2983.4",
            "C": "-56.28",
            "Tmin": "330.56",
            "Tmax": "479.97"
        },
        "Pa"
    ],
    "LiquidViscosityRPS": [
        {
            "eqno": "12",
            "A": "-2.9306",
            "B": "-0.015656",
            "Tmin": "181.15",
            "Tmax": "366.97"
        },
        "Pa.s"
    ],
    "COSTALDVolume": [
        "0.368168",
        "m3/kmol"
    ],
    "DiameterLJ": [
        "6.438977E-10",
        "m"
    ],
    "EnergyLJ": [
        "329.5296",
        "K"
    ],
    "RacketParameter": [
        "0.273",
        "_"
    ],
    "FullerVolume": [
        "131.54",
        "_"
    ],
    "Parachor": [
        "0.0496357",
        "kg0.25.m3/s0.5/kmol"
    ],
    "SpecificGravity": [
        "0.791941",
        "_"
    ],
    "Charge": [
        "0",
        "_"
    ],
    "CostaldAcentricFactor": [
        "0.358",
        "_"
    ],
    "WilsonVolume": [
        "0.130251",
        "m3/kmol"
    ],
    "ChaoSeaderAcentricFactor": [
        "0.358",
        "_"
    ],
    "ChaoSeaderSolubilityParameter": [
        "16460",
        "J0.5/m1.5"
    ],
    "ChaoSeaderLiquidVolume": [
        "0.130251",
        "m3/kmol"
    ],
    "RadiusOfGyration": [
        "3.806E-10",
        "m"
    ],
    "VanDerWaalsVolume": [
        "0.0684699",
        "m3/kmol"
    ],
    "VanDerWaalsArea": [
        "9.71E+08",
        "m2/kmol"
    ],
    "MatthiasCopemanC1": [
        "1.10759",
        "_"
    ],
    "SolidDensity": [
        {
            "eqno": "2",
            "A": "11.146",
            "B": "-0.0067994",
            "C": "0",
            "D": "0",
            "E": "0",
            "Tmin": "72.46",
            "Tmax": "181.15"
        },
        "kmol/m3"
    ],
    "SurfaceTension": [
        {
            "eqno": "16",
            "A": "-0.010113",
            "B": "61.945",
            "C": "-3.4261",
            "D": "0.0012947",
            "E": "-0.0000069057",
            "Tmin": "181.15",
            "Tmax": "536"
        },
        "N/m"
    ],
    "MatthiasCopemanC2": [
        "-0.78288",
        "_"
    ],
    "UniquacR": [
        "4.7403",
        "_"
    ],
    "UniquacQ": [
        "4.192",
        "_"
    ],
    "ApiSrkS2": [
        "0.04628",
        "_"
    ],
    "MatthiasCopemanC3": [
        "1.50681",
        "_"
    ],
    "SolidHeatCapacityCp": [
        {
            "eqno": "1",
            "A": "177040",
            "Tmin": "0",
            "Tmax": "540.5"
        },
        "J/kmol/K"
    ],
    "UniquacQP": [
        "4.936",
        "_"
    ],
    "ApiSrkS1": [
        "0.886894",
        "_"
    ]
}