{
    "CAS": "1120-21-4",
    "LibraryIndex": "63",
    "CompoundID": "N-undecane",
    "StructureFormula": "CH3(CH2)9CH3",
    "Family": "1",
    "CriticalTemperature": [
        "639",
        "K"
    ],
    "CriticalPressure": [
        "1980000",
        "Pa"
    ],
    "CriticalVolume": [
        "0.689",
        "m3/kmol"
    ],
    "CriticalCompressibility": [
        "0.257",
        "_"
    ],
    "NormalBoilingPointTemperature": [
        "469.08",
        "K"
    ],
    "NormalMeltingPointTemperature": [
        "247.571",
        "K"
    ],
    "TriplePointTemperature": [
        "247.571",
        "K"
    ],
    "TriplePointPressure": [
        "0.408414",
        "Pa"
    ],
    "MolecularWeight": [
        "156.312",
        "kg/kmol"
    ],
    "LiquidVolumeAtNormalBoilingPoint": [
        "0.21224",
        "m3/kmol"
    ],
    "AcentricityFactor": [
        "0.538",
        "_"
    ],
    "SolubilityParameter": [
        "15880",
        "J0.5/m1.5"
    ],
    "DipoleMoment": [
        "0",
        "Coulomb.m"
    ],
    "HeatOfFormation": [
        "-2.7043E+08",
        "J/kmol"
    ],
    "GibbsEnergyOfFormation": [
        "4.116E+07",
        "J/kmol"
    ],
    "AbsEntropy": [
        "584930",
        "J/kmol/K"
    ],
    "HeatOfFusionAtMeltingPoint": [
        "2.218E+07",
        "J/kmol"
    ],
    "HeatOfCombustion": [
        "-6.9036E+09",
        "J/kmol"
    ],
    "LiquidDensity": [
        {
            "eqno": "105",
            "A": "0.36785",
            "B": "0.24938",
            "C": "639",
            "D": "0.28395",
            "Tmin": "247.57",
            "Tmax": "639"
        },
        "kmol/m3"
    ],
    "VaporPressure": [
        {
            "eqno": "101",
            "A": "128.8551",
            "B": "-11029.21",
            "C": "-15.54009",
            "D": "8.030888E-06",
            "E": "2",
            "Tmin": "247.57",
            "Tmax": "639"
        },
        "Pa"
    ],
    "HeatOfVaporization": [
        {
            "eqno": "106",
            "A": "8.9735E+07",
            "B": "0.81788",
            "C": "0.31647",
            "D": "-1.4781",
            "E": "0.80673",
            "Tmin": "247.57",
            "Tmax": "639"
        },
        "J/kmol"
    ],
    "LiquidHeatCapacityCp": [
        {
            "eqno": "16",
            "A": "208030",
            "B": "521.1",
            "C": "6.1551",
            "D": "0.017086",
            "E": "-0.000013175",
            "Tmin": "247.57",
            "Tmax": "433.42"
        },
        "J/kmol/K"
    ],
    "IdealGasHeatCapacityCp": [
        {
            "eqno": "16",
            "A": "177700",
            "B": "-730.83",
            "C": "13.81",
            "D": "-0.00021088",
            "E": "5.7776E-08",
            "Tmin": "200",
            "Tmax": "1500"
        },
        "J/kmol/K"
    ],
    "SecondVirialCoefficient": [
        {
            "eqno": "104",
            "A": "0.60629",
            "B": "-760.54",
            "C": "-75.703",
            "D": "-307370",
            "E": "805010",
            "Tmin": "319",
            "Tmax": "1500"
        },
        "m3/kmol"
    ],
    "LiquidViscosity": [
        {
            "eqno": "101",
            "A": "-92.575",
            "B": "4408.9",
            "C": "12.698",
            "D": "-0.000015556",
            "E": "2",
            "Tmin": "247.57",
            "Tmax": "511.2"
        },
        "Pa.s"
    ],
    "VaporViscosity": [
        {
            "eqno": "102",
            "A": "2.9213E-08",
            "B": "0.9335",
            "C": "118.62",
            "D": "-4363.8",
            "Tmin": "247.57",
            "Tmax": "1000"
        },
        "Pa.s"
    ],
    "LiquidThermalConductivity": [
        {
            "eqno": "16",
            "A": "0.015185",
            "B": "-212.29",
            "C": "-0.044539",
            "D": "-0.0049614",
            "E": "0.0000013629",
            "Tmin": "247.57",
            "Tmax": "469.08"
        },
        "W/m/K"
    ],
    "VaporThermalConductivity": [
        {
            "eqno": "102",
            "A": "0.037608",
            "B": "0.6852",
            "C": "33443",
            "D": "9124600",
            "Tmin": "469.08",
            "Tmax": "1000"
        },
        "W/m/K"
    ],
    "RPPHeatCapacityCp": [
        {
            "eqno": "4",
            "A": "-11238.22",
            "B": "1067.841",
            "C": "-0.600948",
            "D": "0.000132394",
            "Tmin": "200",
            "Tmax": "1500"
        },
        "J/kmol/K"
    ],
    "RelativeStaticPermittivity": [
        {
            "eqno": "120",
            "A": "-1.4825",
            "B": "-1000",
            "C": "-6",
            "Tmin": "274.15",
            "Tmax": "444.15"
        },
        "_"
    ],
    "AntoineVaporPressure": [
        {
            "eqno": "10",
            "A": "21.005",
            "B": "3654.7",
            "C": "-83.504",
            "Tmin": "384.11",
            "Tmax": "556.59"
        },
        "Pa"
    ],
    "LiquidViscosityRPS": [
        {
            "eqno": "13",
            "A": "0.80609",
            "B": "-0.035059",
            "C": "0.00003251",
            "Tmin": "247.57",
            "Tmax": "511.2"
        },
        "Pa.s"
    ],
    "COSTALDVolume": [
        "0.684519",
        "m3/kmol"
    ],
    "DiameterLJ": [
        "8.41521E-10",
        "m"
    ],
    "EnergyLJ": [
        "313.4536",
        "K"
    ],
    "RacketParameter": [
        "0.243351",
        "_"
    ],
    "FullerVolume": [
        "230.34",
        "_"
    ],
    "Parachor": [
        "0.0825",
        "kg0.25.m3/s0.5/kmol"
    ],
    "SpecificGravity": [
        "0.742846",
        "_"
    ],
    "Charge": [
        "0",
        "_"
    ],
    "CostaldAcentricFactor": [
        "0.5349",
        "_"
    ],
    "WilsonVolume": [
        "0.212215",
        "m3/kmol"
    ],
    "ChaoSeaderAcentricFactor": [
        "0.521",
        "_"
    ],
    "ChaoSeaderSolubilityParameter": [
        "15934.45",
        "J0.5/m1.5"
    ],
    "ChaoSeaderLiquidVolume": [
        "0.2122",
        "m3/kmol"
    ],
    "RadiusOfGyration": [
        "5.496E-10",
        "m"
    ],
    "VanDerWaalsVolume": [
        "0.1194",
        "m3/kmol"
    ],
    "VanDerWaalsArea": [
        "1.639E+09",
        "m2/kmol"
    ],
    "MatthiasCopemanC1": [
        "1.3766",
        "_"
    ],
    "SolidDensity": [
        {
            "eqno": "2",
            "A": "6.2757",
            "B": "-0.0028242",
            "Tmin": "99.03",
            "Tmax": "247.57"
        },
        "kmol/m3"
    ],
    "SurfaceTension": [
        {
            "eqno": "16",
            "A": "-0.099094",
            "B": "-34.281",
            "C": "-1.5565",
            "D": "-0.0016817",
            "E": "9.0654E-07",
            "Tmin": "247.57",
            "Tmax": "639"
        },
        "N/m"
    ],
    "MatthiasCopemanC2": [
        "-0.98384",
        "_"
    ],
    "UniquacR": [
        "7.871799",
        "_"
    ],
    "UniquacQ": [
        "6.556",
        "_"
    ],
    "ApiSrkS2": [
        "-0.012698",
        "_"
    ],
    "MatthiasCopemanC3": [
        "2.1446",
        "_"
    ],
    "SolidHeatCapacityCp": [
        {
            "eqno": "100",
            "A": "-39053",
            "B": "2684.8",
            "C": "-12.418",
            "D": "0.023835",
            "E": "0.000012675",
            "Tmin": "28.87",
            "Tmax": "214.07"
        },
        "J/kmol/K"
    ],
    "UniquacQP": [
        "4.936",
        "_"
    ],
    "ApiSrkS1": [
        "0.745244",
        "_"
    ]
}