{
    "CAS": "1186-53-4",
    "LibraryIndex": "52",
    "CompoundID": "2,2,3,4-tetramethylpentane",
    "StructureFormula": "CH3C(CH3)2CH(CH3)CH(CH3)CH3",
    "Family": "4",
    "CriticalTemperature": [
        "592.7",
        "K"
    ],
    "CriticalPressure": [
        "2530000",
        "Pa"
    ],
    "CriticalVolume": [
        "0.49",
        "m3/kmol"
    ],
    "CriticalCompressibility": [
        "0.258",
        "_"
    ],
    "NormalBoilingPointTemperature": [
        "406.18",
        "K"
    ],
    "NormalMeltingPointTemperature": [
        "152.06",
        "K"
    ],
    "TriplePointTemperature": [
        "152.06",
        "K"
    ],
    "TriplePointPressure": [
        "0.000053591",
        "Pa"
    ],
    "MolecularWeight": [
        "128.258",
        "kg/kmol"
    ],
    "LiquidVolumeAtNormalBoilingPoint": [
        "0.179229",
        "m3/kmol"
    ],
    "AcentricityFactor": [
        "0.301",
        "_"
    ],
    "SolubilityParameter": [
        "14730",
        "J0.5/m1.5"
    ],
    "DipoleMoment": [
        "0",
        "Coulomb.m"
    ],
    "HeatOfFormation": [
        "-2.37358E+08",
        "J/kmol"
    ],
    "GibbsEnergyOfFormation": [
        "3.26352E+07",
        "J/kmol"
    ],
    "AbsEntropy": [
        "452834",
        "J/kmol/K"
    ],
    "HeatOfFusionAtMeltingPoint": [
        "500000",
        "J/kmol"
    ],
    "HeatOfCombustion": [
        "-5.68208E+09",
        "J/kmol"
    ],
    "LiquidDensity": [
        {
            "eqno": "105",
            "A": "0.42889",
            "B": "0.24425",
            "C": "592.7",
            "D": "0.24983",
            "Tmin": "152.06",
            "Tmax": "592.6"
        },
        "kmol/m3"
    ],
    "VaporPressure": [
        {
            "eqno": "101",
            "A": "137.07",
            "B": "-9700.5",
            "C": "-17.255",
            "D": "0.000012062",
            "E": "2",
            "Tmin": "152.06",
            "Tmax": "592.6"
        },
        "Pa"
    ],
    "HeatOfVaporization": [
        {
            "eqno": "106",
            "A": "5.771831E+07",
            "B": "1.016576",
            "C": "-1.835135",
            "D": "2.12911",
            "E": "-0.921819",
            "Tmin": "152.06",
            "Tmax": "592.6"
        },
        "J/kmol"
    ],
    "LiquidHeatCapacityCp": [
        {
            "eqno": "16",
            "A": "177720",
            "B": "-50.337",
            "C": "8.3416",
            "D": "0.015008",
            "E": "-0.000013849",
            "Tmin": "152.06",
            "Tmax": "406.18"
        },
        "J/kmol/K"
    ],
    "IdealGasHeatCapacityCp": [
        {
            "eqno": "16",
            "A": "83946",
            "B": "-465.16",
            "C": "13.193",
            "D": "0.000328",
            "E": "-9.6189E-08",
            "Tmin": "150",
            "Tmax": "1500"
        },
        "J/kmol/K"
    ],
    "SecondVirialCoefficient": [
        {
            "eqno": "104",
            "A": "0.30123",
            "B": "-401.73",
            "C": "-67.509",
            "D": "-13419",
            "E": "21834",
            "Tmin": "296.08",
            "Tmax": "1892.08"
        },
        "m3/kmol"
    ],
    "LiquidViscosity": [
        {
            "eqno": "101",
            "A": "-8.182",
            "B": "1248.5",
            "C": "-0.55988",
            "D": "-2.1902E-07",
            "E": "2",
            "Tmin": "152.06",
            "Tmax": "474.08"
        },
        "Pa.s"
    ],
    "VaporViscosity": [
        {
            "eqno": "102",
            "A": "3.9083E-07",
            "B": "0.57522",
            "C": "220.52",
            "D": "-776.34",
            "Tmin": "152.06",
            "Tmax": "1000"
        },
        "Pa.s"
    ],
    "LiquidThermalConductivity": [
        {
            "eqno": "16",
            "A": "-0.045924",
            "B": "4.3553",
            "C": "-1.6529",
            "D": "-0.00040588",
            "E": "-0.000001389",
            "Tmin": "152.06",
            "Tmax": "406.18"
        },
        "W/m/K"
    ],
    "VaporThermalConductivity": [
        {
            "eqno": "102",
            "A": "0.000019408",
            "B": "1.2262",
            "C": "-198.62",
            "D": "159810",
            "Tmin": "406.18",
            "Tmax": "1000"
        },
        "W/m/K"
    ],
    "RPPHeatCapacityCp": [
        {
            "eqno": "100",
            "A": "-45081",
            "B": "1026.9",
            "C": "-0.66774",
            "D": "0.00021534",
            "E": "-2.1701E-08",
            "Tmin": "200",
            "Tmax": "1000"
        },
        "J/kmol/K"
    ],
    "RelativeStaticPermittivity": [
        {
            "eqno": "120",
            "A": "-2.197557",
            "B": "-1450",
            "C": "-8.7",
            "Tmin": "274.15",
            "Tmax": "444.15"
        },
        "_"
    ],
    "AntoineVaporPressure": [
        {
            "eqno": "10",
            "A": "20.558",
            "B": "3122",
            "C": "-60.513",
            "Tmin": "360.74",
            "Tmax": "523.04"
        },
        "Pa"
    ],
    "LiquidViscosityRPS": [
        {
            "eqno": "12",
            "A": "-1.3033",
            "B": "-0.017906",
            "Tmin": "152.06",
            "Tmax": "474.08"
        },
        "Pa.s"
    ],
    "COSTALDVolume": [
        "0.550036",
        "m3/kmol"
    ],
    "DiameterLJ": [
        "7.476529E-10",
        "m"
    ],
    "EnergyLJ": [
        "294.835",
        "K"
    ],
    "RacketParameter": [
        "0.258",
        "_"
    ],
    "FullerVolume": [
        "189.3",
        "_"
    ],
    "Parachor": [
        "0.066584",
        "kg0.25.m3/s0.5/kmol"
    ],
    "SpecificGravity": [
        "0.743261",
        "_"
    ],
    "Charge": [
        "0",
        "_"
    ],
    "CostaldAcentricFactor": [
        "0.301",
        "_"
    ],
    "WilsonVolume": [
        "0.179229",
        "m3/kmol"
    ],
    "ChaoSeaderAcentricFactor": [
        "0.301",
        "_"
    ],
    "ChaoSeaderSolubilityParameter": [
        "14730",
        "J0.5/m1.5"
    ],
    "ChaoSeaderLiquidVolume": [
        "0.179229",
        "m3/kmol"
    ],
    "RadiusOfGyration": [
        "4.16E-10",
        "m"
    ],
    "VanDerWaalsVolume": [
        "0.09891",
        "m3/kmol"
    ],
    "VanDerWaalsArea": [
        "1.386E+09",
        "m2/kmol"
    ],
    "MatthiasCopemanC1": [
        "0.95146",
        "_"
    ],
    "SolidDensity": [
        {
            "eqno": "2",
            "A": "8.2756",
            "B": "-0.0060479",
            "C": "0",
            "D": "0",
            "E": "0",
            "Tmin": "60.82",
            "Tmax": "152.06"
        },
        "kmol/m3"
    ],
    "SurfaceTension": [
        {
            "eqno": "16",
            "A": "-0.012296",
            "B": "16.67",
            "C": "-3.0272",
            "D": "-0.00038099",
            "E": "-0.0000033807",
            "Tmin": "152.06",
            "Tmax": "592.6"
        },
        "N/m"
    ],
    "MatthiasCopemanC2": [
        "0",
        "_"
    ],
    "UniquacR": [
        "6.5199",
        "_"
    ],
    "UniquacQ": [
        "5.544",
        "_"
    ],
    "ApiSrkS2": [
        "-0.002088",
        "_"
    ],
    "MatthiasCopemanC3": [
        "0",
        "_"
    ],
    "SolidHeatCapacityCp": [
        {
            "eqno": "1",
            "A": "249210",
            "Tmin": "0",
            "Tmax": "592.7"
        },
        "J/kmol/K"
    ],
    "UniquacQP": [
        "4.936",
        "_"
    ],
    "ApiSrkS1": [
        "0.59245",
        "_"
    ]
}