{
    "CAS": "123-91-1",
    "LibraryIndex": "1421",
    "CompoundID": "1,4-dioxane",
    "StructureFormula": "-OCH2CH2OCH2CH2-",
    "Family": "63",
    "CriticalTemperature": [
        "587",
        "K"
    ],
    "CriticalPressure": [
        "5170000",
        "Pa"
    ],
    "CriticalVolume": [
        "0.238",
        "m3/kmol"
    ],
    "CriticalCompressibility": [
        "0.255",
        "_"
    ],
    "NormalBoilingPointTemperature": [
        "374.5",
        "K"
    ],
    "NormalMeltingPointTemperature": [
        "284.95",
        "K"
    ],
    "TriplePointTemperature": [
        "284.95",
        "K"
    ],
    "TriplePointPressure": [
        "2532.46",
        "Pa"
    ],
    "MolecularWeight": [
        "88.106",
        "kg/kmol"
    ],
    "LiquidVolumeAtNormalBoilingPoint": [
        "0.08529",
        "m3/kmol"
    ],
    "AcentricityFactor": [
        "0.279262",
        "_"
    ],
    "SolubilityParameter": [
        "20540",
        "J0.5/m1.5"
    ],
    "DipoleMoment": [
        "0",
        "Coulomb.m"
    ],
    "HeatOfFormation": [
        "-3.158E+08",
        "J/kmol"
    ],
    "GibbsEnergyOfFormation": [
        "-1.816E+08",
        "J/kmol"
    ],
    "AbsEntropy": [
        "300120",
        "J/kmol/K"
    ],
    "HeatOfFusionAtMeltingPoint": [
        "1.284E+07",
        "J/kmol"
    ],
    "HeatOfCombustion": [
        "-2.1863E+09",
        "J/kmol"
    ],
    "LiquidDensity": [
        {
            "eqno": "105",
            "A": "1.0039",
            "B": "0.25926",
            "C": "587",
            "D": "0.28278",
            "Tmin": "273.83",
            "Tmax": "587"
        },
        "kmol/m3"
    ],
    "VaporPressure": [
        {
            "eqno": "101",
            "A": "50.11504",
            "B": "-5577.21",
            "C": "-4.046854",
            "D": "2.080567E-06",
            "E": "2",
            "Tmin": "284.95",
            "Tmax": "587"
        },
        "Pa"
    ],
    "HeatOfVaporization": [
        {
            "eqno": "106",
            "A": "2.1367E+08",
            "B": "9.1812",
            "C": "-22.992",
            "D": "23.854",
            "E": "-9.34",
            "Tmin": "274.17",
            "Tmax": "587.56"
        },
        "J/kmol"
    ],
    "LiquidHeatCapacityCp": [
        {
            "eqno": "16",
            "A": "151550",
            "B": "-65314",
            "C": "519.35",
            "D": "-1.3402",
            "E": "0.0011989",
            "Tmin": "284.93",
            "Tmax": "374.47"
        },
        "J/kmol/K"
    ],
    "IdealGasHeatCapacityCp": [
        {
            "eqno": "16",
            "A": "46250",
            "B": "-613.41",
            "C": "12.822",
            "D": "0.000004782",
            "E": "-2.2238E-08",
            "Tmin": "200",
            "Tmax": "1500"
        },
        "J/kmol/K"
    ],
    "SecondVirialCoefficient": [
        {
            "eqno": "104",
            "A": "0.15508",
            "B": "-121.34",
            "C": "-57.373",
            "D": "-20817",
            "E": "36332",
            "Tmin": "293.5",
            "Tmax": "1877.5"
        },
        "m3/kmol"
    ],
    "LiquidViscosity": [
        {
            "eqno": "101",
            "A": "-79.28",
            "B": "4198.4",
            "C": "10.393",
            "D": "-0.0000085568",
            "E": "2",
            "Tmin": "284.95",
            "Tmax": "374.65"
        },
        "Pa.s"
    ],
    "VaporViscosity": [
        {
            "eqno": "102",
            "A": "2.7334E-07",
            "B": "0.7393",
            "C": "129.93",
            "D": "-0.0004206",
            "Tmin": "284.95",
            "Tmax": "1000"
        },
        "Pa.s"
    ],
    "LiquidThermalConductivity": [
        {
            "eqno": "16",
            "A": "0.089834",
            "B": "46.421",
            "C": "-1.1898",
            "D": "-0.0037338",
            "E": "-0.0000061358",
            "Tmin": "284.95",
            "Tmax": "374.47"
        },
        "W/m/K"
    ],
    "VaporThermalConductivity": [
        {
            "eqno": "102",
            "A": "2.3873E-07",
            "B": "1.8505",
            "C": "-94.575",
            "D": "7804.2",
            "Tmin": "276.15",
            "Tmax": "768.01"
        },
        "W/m/K"
    ],
    "RPPHeatCapacityCp": [
        {
            "eqno": "100",
            "A": "31013",
            "B": "15.39",
            "C": "0.97953",
            "D": "-0.0012972",
            "E": "5.1358E-07",
            "Tmin": "50",
            "Tmax": "1000"
        },
        "J/kmol/K"
    ],
    "RelativeStaticPermittivity": [
        {
            "eqno": "120",
            "A": "-1.572938",
            "B": "-1100",
            "C": "-6.6",
            "Tmin": "279.15",
            "Tmax": "449.15"
        },
        "_"
    ],
    "AntoineVaporPressure": [
        {
            "eqno": "10",
            "A": "21.067",
            "B": "2959.2",
            "C": "-64.038",
            "Tmin": "353.15",
            "Tmax": "527.59"
        },
        "Pa"
    ],
    "LiquidViscosityRPS": [
        {
            "eqno": "13",
            "A": "3.8781",
            "B": "-0.054192",
            "C": "0.000062327",
            "Tmin": "284.95",
            "Tmax": "374.65"
        },
        "Pa.s"
    ],
    "COSTALDVolume": [
        "0.25238",
        "m3/kmol"
    ],
    "DiameterLJ": [
        "5.96013E-10",
        "m"
    ],
    "EnergyLJ": [
        "279.96",
        "K"
    ],
    "RacketParameter": [
        "0.254",
        "_"
    ],
    "FullerVolume": [
        "94.3",
        "_"
    ],
    "Parachor": [
        "0.0363",
        "kg0.25.m3/s0.5/kmol"
    ],
    "SpecificGravity": [
        "1.03891",
        "_"
    ],
    "Charge": [
        "0",
        "_"
    ],
    "CostaldAcentricFactor": [
        "0.2779",
        "_"
    ],
    "WilsonVolume": [
        "0.0856635",
        "m3/kmol"
    ],
    "ChaoSeaderAcentricFactor": [
        "0.280373",
        "_"
    ],
    "ChaoSeaderSolubilityParameter": [
        "20163.3",
        "J0.5/m1.5"
    ],
    "ChaoSeaderLiquidVolume": [
        "0.0856635",
        "m3/kmol"
    ],
    "RadiusOfGyration": [
        "3.017E-10",
        "m"
    ],
    "VanDerWaalsVolume": [
        "0.04662",
        "m3/kmol"
    ],
    "VanDerWaalsArea": [
        "5.9E+08",
        "m2/kmol"
    ],
    "MatthiasCopemanC1": [
        "0.85142",
        "_"
    ],
    "SolidDensity": [
        {
            "eqno": "2",
            "A": "12.349",
            "B": "1.6331E-16",
            "Tmin": "284.15",
            "Tmax": "293.65"
        },
        "kmol/m3"
    ],
    "SurfaceTension": [
        {
            "eqno": "16",
            "A": "-0.01539",
            "B": "-237.84",
            "C": "-0.68129",
            "D": "-0.0050984",
            "E": "-3.5247E-07",
            "Tmin": "274.86",
            "Tmax": "587"
        },
        "N/m"
    ],
    "MatthiasCopemanC2": [
        "0.48017",
        "_"
    ],
    "UniquacR": [
        "3.07",
        "_"
    ],
    "UniquacQ": [
        "2.28",
        "_"
    ],
    "ApiSrkS2": [
        "0.000612",
        "_"
    ],
    "MatthiasCopemanC3": [
        "-1.216",
        "_"
    ],
    "SolidHeatCapacityCp": [
        {
            "eqno": "100",
            "A": "59198",
            "B": "-738.71",
            "C": "10.567",
            "D": "-0.045677",
            "E": "0.000073474",
            "Tmin": "70",
            "Tmax": "272.9"
        },
        "J/kmol/K"
    ],
    "UniquacQP": [
        "2.684",
        "_"
    ],
    "ApiSrkS1": [
        "0.169684",
        "_"
    ]
}