{
    "CAS": "124-11-8",
    "LibraryIndex": "259",
    "CompoundID": "1-nonene",
    "StructureFormula": "CH2CH(CH2)6CH3",
    "Family": "9",
    "CriticalTemperature": [
        "594",
        "K"
    ],
    "CriticalPressure": [
        "2330000",
        "Pa"
    ],
    "CriticalVolume": [
        "0.526",
        "m3/kmol"
    ],
    "CriticalCompressibility": [
        "0.248",
        "_"
    ],
    "NormalBoilingPointTemperature": [
        "420.03",
        "K"
    ],
    "NormalMeltingPointTemperature": [
        "191.91",
        "K"
    ],
    "TriplePointTemperature": [
        "191.91",
        "K"
    ],
    "TriplePointPressure": [
        "0.0204",
        "Pa"
    ],
    "MolecularWeight": [
        "126.242",
        "kg/kmol"
    ],
    "LiquidVolumeAtNormalBoilingPoint": [
        "0.17405",
        "m3/kmol"
    ],
    "AcentricityFactor": [
        "0.411",
        "_"
    ],
    "SolubilityParameter": [
        "15500",
        "J0.5/m1.5"
    ],
    "DipoleMoment": [
        "2.0E-30",
        "Coulomb.m"
    ],
    "HeatOfFormation": [
        "-1.035E+08",
        "J/kmol"
    ],
    "GibbsEnergyOfFormation": [
        "1.123E+08",
        "J/kmol"
    ],
    "AbsEntropy": [
        "504100",
        "J/kmol/K"
    ],
    "HeatOfFusionAtMeltingPoint": [
        "1.9359E+07",
        "J/kmol"
    ],
    "HeatOfCombustion": [
        "-5.5716E+09",
        "J/kmol"
    ],
    "LiquidDensity": [
        {
            "eqno": "105",
            "A": "0.18062",
            "B": "0.15802",
            "C": "594",
            "D": "0.18969",
            "Tmin": "191.91",
            "Tmax": "593.1"
        },
        "kmol/m3"
    ],
    "VaporPressure": [
        {
            "eqno": "101",
            "A": "120.37",
            "B": "-9418.7",
            "C": "-14.583",
            "D": "0.0000094863",
            "E": "2",
            "Tmin": "191.91",
            "Tmax": "593.1"
        },
        "Pa"
    ],
    "HeatOfVaporization": [
        {
            "eqno": "106",
            "A": "5.0729E+07",
            "B": "-0.72017",
            "C": "3.2276",
            "D": "-3.6347",
            "E": "1.4659",
            "Tmin": "191.91",
            "Tmax": "593.1"
        },
        "J/kmol"
    ],
    "LiquidHeatCapacityCp": [
        {
            "eqno": "16",
            "A": "58309",
            "B": "119.15",
            "C": "10.75",
            "D": "0.0042025",
            "E": "-0.0000015805",
            "Tmin": "191.91",
            "Tmax": "475"
        },
        "J/kmol/K"
    ],
    "IdealGasHeatCapacityCp": [
        {
            "eqno": "16",
            "A": "122350",
            "B": "-622.4",
            "C": "13.352",
            "D": "-0.000015236",
            "E": "-2.3169E-10",
            "Tmin": "200",
            "Tmax": "1500"
        },
        "J/kmol/K"
    ],
    "SecondVirialCoefficient": [
        {
            "eqno": "104",
            "A": "0.21322",
            "B": "-235.69",
            "C": "-117.36",
            "D": "37005",
            "E": "-118360",
            "Tmin": "297",
            "Tmax": "1500"
        },
        "m3/kmol"
    ],
    "LiquidViscosity": [
        {
            "eqno": "101",
            "A": "-10.296",
            "B": "1057.3",
            "C": "-0.12431",
            "D": "2.0281E-07",
            "E": "2",
            "Tmin": "191.91",
            "Tmax": "420.02"
        },
        "Pa.s"
    ],
    "VaporViscosity": [
        {
            "eqno": "102",
            "A": "7.2319E-08",
            "B": "0.81707",
            "C": "155.31",
            "D": "-12572",
            "Tmin": "191.91",
            "Tmax": "1000"
        },
        "Pa.s"
    ],
    "LiquidThermalConductivity": [
        {
            "eqno": "16",
            "A": "0.024602",
            "B": "-118.29",
            "C": "-0.40946",
            "D": "-0.0056136",
            "E": "0.0000021909",
            "Tmin": "191.91",
            "Tmax": "533.15"
        },
        "W/m/K"
    ],
    "VaporThermalConductivity": [
        {
            "eqno": "102",
            "A": "0.000019761",
            "B": "1.2983",
            "C": "563.96",
            "D": "24829",
            "Tmin": "400",
            "Tmax": "1000"
        },
        "W/m/K"
    ],
    "RPPHeatCapacityCp": [
        {
            "eqno": "100",
            "A": "82837",
            "B": "113.94",
            "C": "1.4559",
            "D": "-0.0020124",
            "E": "0.000000806",
            "Tmin": "200",
            "Tmax": "1000"
        },
        "J/kmol/K"
    ],
    "RelativeStaticPermittivity": [
        {
            "eqno": "120",
            "A": "-1.5046",
            "B": "-1050",
            "C": "-6.3",
            "Tmin": "278.5945",
            "Tmax": "448.5945"
        },
        "_"
    ],
    "AntoineVaporPressure": [
        {
            "eqno": "10",
            "A": "21.098",
            "B": "3433.4",
            "C": "-61.353",
            "Tmin": "357.35",
            "Tmax": "529.75"
        },
        "Pa"
    ],
    "LiquidViscosityRPS": [
        {
            "eqno": "12",
            "A": "-3.6813",
            "B": "-0.01221",
            "Tmin": "191.91",
            "Tmax": "420.02"
        },
        "Pa.s"
    ],
    "COSTALDVolume": [
        "0.528415",
        "m3/kmol"
    ],
    "DiameterLJ": [
        "8.027215E-10",
        "m"
    ],
    "EnergyLJ": [
        "256.2865",
        "K"
    ],
    "RacketParameter": [
        "0.248",
        "_"
    ],
    "FullerVolume": [
        "184.68",
        "_"
    ],
    "Parachor": [
        "0.0667997",
        "kg0.25.m3/s0.5/kmol"
    ],
    "SpecificGravity": [
        "0.734403",
        "_"
    ],
    "Charge": [
        "0",
        "_"
    ],
    "CostaldAcentricFactor": [
        "0.411",
        "_"
    ],
    "WilsonVolume": [
        "0.17405",
        "m3/kmol"
    ],
    "ChaoSeaderAcentricFactor": [
        "0.411",
        "_"
    ],
    "ChaoSeaderSolubilityParameter": [
        "15500",
        "J0.5/m1.5"
    ],
    "ChaoSeaderLiquidVolume": [
        "0.17405",
        "m3/kmol"
    ],
    "RadiusOfGyration": [
        "4.873E-10",
        "m"
    ],
    "VanDerWaalsVolume": [
        "0.09546",
        "m3/kmol"
    ],
    "VanDerWaalsArea": [
        "1.316E+09",
        "m2/kmol"
    ],
    "MatthiasCopemanC1": [
        "1.1406",
        "_"
    ],
    "SolidDensity": [
        {
            "eqno": "2",
            "A": "8.0944",
            "B": "-0.0047703",
            "C": "0",
            "D": "0",
            "E": "0",
            "Tmin": "76.76",
            "Tmax": "191.91"
        },
        "kmol/m3"
    ],
    "SurfaceTension": [
        {
            "eqno": "16",
            "A": "-0.13785",
            "B": "-6.5227",
            "C": "-1.5557",
            "D": "-0.00098337",
            "E": "4.6887E-07",
            "Tmin": "191.91",
            "Tmax": "593.1"
        },
        "N/m"
    ],
    "MatthiasCopemanC2": [
        "-0.34446",
        "_"
    ],
    "UniquacR": [
        "6.2929",
        "_"
    ],
    "UniquacQ": [
        "5.264",
        "_"
    ],
    "ApiSrkS2": [
        "-0.000564",
        "_"
    ],
    "MatthiasCopemanC3": [
        "0.80187",
        "_"
    ],
    "SolidHeatCapacityCp": [
        {
            "eqno": "100",
            "A": "-16015",
            "B": "1468.8",
            "C": "2.0005",
            "D": "-0.064925",
            "E": "0.00021824",
            "Tmin": "11",
            "Tmax": "191.92"
        },
        "J/kmol/K"
    ],
    "UniquacQP": [
        "4.936",
        "_"
    ],
    "ApiSrkS1": [
        "0.59245",
        "_"
    ]
}