{
    "CAS": "124-04-9",
    "LibraryIndex": "1285",
    "CompoundID": "Adipic acid",
    "StructureFormula": "HOOC(CH2)4COOH",
    "Family": "52",
    "CriticalTemperature": [
        "809",
        "K"
    ],
    "CriticalPressure": [
        "3530000",
        "Pa"
    ],
    "CriticalVolume": [
        "0.4",
        "m3/kmol"
    ],
    "CriticalCompressibility": [
        "0.21",
        "_"
    ],
    "NormalBoilingPointTemperature": [
        "611",
        "K"
    ],
    "NormalMeltingPointTemperature": [
        "426.15",
        "K"
    ],
    "TriplePointTemperature": [
        "425.5",
        "K"
    ],
    "TriplePointPressure": [
        "78.0827",
        "Pa"
    ],
    "MolecularWeight": [
        "146.141",
        "kg/kmol"
    ],
    "LiquidVolumeAtNormalBoilingPoint": [
        "0.133942",
        "m3/kmol"
    ],
    "AcentricityFactor": [
        "1.05065",
        "_"
    ],
    "SolubilityParameter": [
        "25370",
        "J0.5/m1.5"
    ],
    "DipoleMoment": [
        "7.74E-30",
        "Coulomb.m"
    ],
    "HeatOfFormation": [
        "-8.65E+08",
        "J/kmol"
    ],
    "GibbsEnergyOfFormation": [
        "-6.82E+08",
        "J/kmol"
    ],
    "AbsEntropy": [
        "482000",
        "J/kmol/K"
    ],
    "HeatOfFusionAtMeltingPoint": [
        "1.67E+07",
        "J/kmol"
    ],
    "HeatOfCombustion": [
        "-2.58E+09",
        "J/kmol"
    ],
    "LiquidDensity": [
        {
            "eqno": "105",
            "A": "0.64797",
            "B": "0.25918",
            "C": "809",
            "D": "0.28198",
            "Tmin": "425.5",
            "Tmax": "809"
        },
        "kmol/m3"
    ],
    "VaporPressure": [
        {
            "eqno": "101",
            "A": "255.2237",
            "B": "-23233.92",
            "C": "-32.83085",
            "D": "0.000013435",
            "E": "2",
            "Tmin": "425.5",
            "Tmax": "809"
        },
        "Pa"
    ],
    "HeatOfVaporization": [
        {
            "eqno": "106",
            "A": "1.949255E+08",
            "B": "0.823008",
            "C": "2.518159",
            "D": "-5.646327",
            "E": "2.784565",
            "Tmin": "425.5",
            "Tmax": "809"
        },
        "J/kmol"
    ],
    "LiquidHeatCapacityCp": [
        {
            "eqno": "16",
            "A": "235940",
            "B": "-32.997",
            "C": "10.809",
            "D": "0.0032672",
            "E": "-0.0000019456",
            "Tmin": "425.5",
            "Tmax": "611"
        },
        "J/kmol/K"
    ],
    "IdealGasHeatCapacityCp": [
        {
            "eqno": "16",
            "A": "85474",
            "B": "-423.41",
            "C": "12.745",
            "D": "0.00026178",
            "E": "-1.1462E-07",
            "Tmin": "273",
            "Tmax": "1500"
        },
        "J/kmol/K"
    ],
    "SecondVirialCoefficient": [
        {
            "eqno": "104",
            "A": "0.37998",
            "B": "-379.85",
            "C": "-418.42",
            "D": "-567110",
            "E": "576970",
            "Tmin": "414",
            "Tmax": "1500"
        },
        "m3/kmol"
    ],
    "LiquidViscosity": [
        {
            "eqno": "101",
            "A": "-8.4738",
            "B": "3093.2",
            "C": "-0.68319",
            "D": "4.5668E-07",
            "E": "2",
            "Tmin": "433.15",
            "Tmax": "466.15"
        },
        "Pa.s"
    ],
    "VaporViscosity": [
        {
            "eqno": "102",
            "A": "8.6397E-08",
            "B": "0.79699",
            "C": "129.04",
            "D": "-83.45",
            "Tmin": "425.5",
            "Tmax": "1000"
        },
        "Pa.s"
    ],
    "LiquidThermalConductivity": [
        {
            "eqno": "16",
            "A": "-0.15138",
            "B": "31.723",
            "C": "-1.1417",
            "D": "0.000072402",
            "E": "-7.2467E-07",
            "Tmin": "242.7",
            "Tmax": "642.7"
        },
        "W/m/K"
    ],
    "VaporThermalConductivity": [
        {
            "eqno": "102",
            "A": "0.00019846",
            "B": "0.87712",
            "C": "520.45",
            "D": "62013",
            "Tmin": "611",
            "Tmax": "1000"
        },
        "W/m/K"
    ],
    "RPPHeatCapacityCp": [
        {
            "eqno": "4",
            "A": "18304",
            "B": "636.31",
            "C": "-0.40132",
            "D": "0.0000928",
            "Tmin": "273",
            "Tmax": "1500"
        },
        "J/kmol/K"
    ],
    "RelativeStaticPermittivity": [
        {
            "eqno": "120",
            "A": "-21.91636",
            "B": "-10000",
            "C": "-66",
            "Tmin": "274.7056",
            "Tmax": "444.7056"
        },
        "_"
    ],
    "AntoineVaporPressure": [
        {
            "eqno": "10",
            "A": "22.687",
            "B": "5175.2",
            "C": "-145.76",
            "Tmin": "486.05",
            "Tmax": "708.08"
        },
        "Pa"
    ],
    "LiquidViscosityRPS": [
        {
            "eqno": "12",
            "A": "1.714",
            "B": "-0.016424",
            "Tmin": "433.15",
            "Tmax": "466.15"
        },
        "Pa.s"
    ],
    "COSTALDVolume": [
        "0.434587",
        "m3/kmol"
    ],
    "DiameterLJ": [
        "8.945443E-10",
        "m"
    ],
    "EnergyLJ": [
        "191.8011",
        "K"
    ],
    "RacketParameter": [
        "0.21",
        "_"
    ],
    "FullerVolume": [
        "142.94",
        "_"
    ],
    "Parachor": [
        "0.0512838",
        "kg0.25.m3/s0.5/kmol"
    ],
    "SpecificGravity": [
        "1.204857",
        "_"
    ],
    "Charge": [
        "0",
        "_"
    ],
    "CostaldAcentricFactor": [
        "1.05065",
        "_"
    ],
    "WilsonVolume": [
        "0.133942",
        "m3/kmol"
    ],
    "ChaoSeaderAcentricFactor": [
        "1.05065",
        "_"
    ],
    "ChaoSeaderSolubilityParameter": [
        "25370",
        "J0.5/m1.5"
    ],
    "ChaoSeaderLiquidVolume": [
        "0.133942",
        "m3/kmol"
    ],
    "RadiusOfGyration": [
        "4.976E-10",
        "m"
    ],
    "VanDerWaalsVolume": [
        "0.07996",
        "m3/kmol"
    ],
    "VanDerWaalsArea": [
        "1.15E+09",
        "m2/kmol"
    ],
    "MatthiasCopemanC1": [
        "1.41302",
        "_"
    ],
    "SolidDensity": [
        {
            "eqno": "2",
            "A": "9.2095",
            "B": "0.000041964",
            "C": "0",
            "D": "0",
            "E": "0",
            "Tmin": "285.65",
            "Tmax": "425.5"
        },
        "kmol/m3"
    ],
    "SurfaceTension": [
        {
            "eqno": "16",
            "A": "-0.018266",
            "B": "123.31",
            "C": "-3.4148",
            "D": "0.00050163",
            "E": "-0.0000017596",
            "Tmin": "425.5",
            "Tmax": "809"
        },
        "N/m"
    ],
    "MatthiasCopemanC2": [
        "0",
        "_"
    ],
    "UniquacR": [
        "5.3002",
        "_"
    ],
    "UniquacQ": [
        "4.608",
        "_"
    ],
    "ApiSrkS2": [
        "0.141244",
        "_"
    ],
    "MatthiasCopemanC3": [
        "0",
        "_"
    ],
    "SolidHeatCapacityCp": [
        {
            "eqno": "100",
            "A": "40.553",
            "B": "3069.4",
            "C": "-15.206",
            "D": "0.033481",
            "E": "-0.000027642",
            "Tmin": "298.15",
            "Tmax": "307.65"
        },
        "J/kmol/K"
    ],
    "UniquacQP": [
        "4.936",
        "_"
    ],
    "ApiSrkS1": [
        "0.529899",
        "_"
    ]
}