{
    "CAS": "126-33-0",
    "LibraryIndex": "1845",
    "CompoundID": "Sulfolane",
    "StructureFormula": "-(CH2)2SO2(CH2)2-",
    "Family": "70",
    "CriticalTemperature": [
        "855",
        "K"
    ],
    "CriticalPressure": [
        "7290000",
        "Pa"
    ],
    "CriticalVolume": [
        "0.3365",
        "m3/kmol"
    ],
    "CriticalCompressibility": [
        "0.345074",
        "_"
    ],
    "NormalBoilingPointTemperature": [
        "560.45",
        "K"
    ],
    "NormalMeltingPointTemperature": [
        "300.55",
        "K"
    ],
    "TriplePointTemperature": [
        "300.55",
        "K"
    ],
    "TriplePointPressure": [
        "0.704459",
        "Pa"
    ],
    "MolecularWeight": [
        "120.17",
        "kg/kmol"
    ],
    "LiquidVolumeAtNormalBoilingPoint": [
        "0.0952677",
        "m3/kmol"
    ],
    "AcentricityFactor": [
        "0.5234",
        "_"
    ],
    "SolubilityParameter": [
        "26110",
        "J0.5/m1.5"
    ],
    "DipoleMoment": [
        "1.56E-29",
        "Coulomb.m"
    ],
    "HeatOfFormation": [
        "-3.727E+08",
        "J/kmol"
    ],
    "GibbsEnergyOfFormation": [
        "-2.431E+08",
        "J/kmol"
    ],
    "AbsEntropy": [
        "347500",
        "J/kmol/K"
    ],
    "HeatOfFusionAtMeltingPoint": [
        "1373000",
        "J/kmol"
    ],
    "HeatOfCombustion": [
        "-2.397E+09",
        "J/kmol"
    ],
    "LiquidDensity": [
        {
            "eqno": "105",
            "A": "0.89997",
            "B": "0.26972",
            "C": "853",
            "D": "0.30746",
            "Tmin": "300.55",
            "Tmax": "853"
        },
        "kmol/m3"
    ],
    "VaporPressure": [
        {
            "eqno": "101",
            "A": "112.0995",
            "B": "-12237.47",
            "C": "-12.64533",
            "D": "4.157394E-06",
            "E": "2",
            "Tmin": "273.15",
            "Tmax": "853"
        },
        "Pa"
    ],
    "HeatOfVaporization": [
        {
            "eqno": "106",
            "A": "1.605659E+08",
            "B": "3.828131",
            "C": "-7.67047",
            "D": "6.739132",
            "E": "-2.353929",
            "Tmin": "300.55",
            "Tmax": "853"
        },
        "J/kmol"
    ],
    "LiquidHeatCapacityCp": [
        {
            "eqno": "16",
            "A": "122690",
            "B": "-336.31",
            "C": "11.614",
            "D": "0.0017011",
            "E": "-5.0866E-07",
            "Tmin": "300.55",
            "Tmax": "711.15"
        },
        "J/kmol/K"
    ],
    "IdealGasHeatCapacityCp": [
        {
            "eqno": "16",
            "A": "92921",
            "B": "-999.97",
            "C": "13.757",
            "D": "-0.00093192",
            "E": "0.0000002258",
            "Tmin": "273.15",
            "Tmax": "1500"
        },
        "J/kmol/K"
    ],
    "SecondVirialCoefficient": [
        {
            "eqno": "104",
            "A": "0.21162",
            "B": "-345.47",
            "C": "-201.18",
            "D": "-901260",
            "E": "2067300",
            "Tmin": "426.5",
            "Tmax": "1575.5"
        },
        "m3/kmol"
    ],
    "LiquidViscosity": [
        {
            "eqno": "101",
            "A": "-56.251",
            "B": "4046.1",
            "C": "6.7894",
            "D": "-0.0000052803",
            "E": "2",
            "Tmin": "273.15",
            "Tmax": "682.4"
        },
        "Pa.s"
    ],
    "VaporViscosity": [
        {
            "eqno": "102",
            "A": "2.9074E-08",
            "B": "0.97453",
            "C": "81.209",
            "D": "-9361.1",
            "Tmin": "300.55",
            "Tmax": "1000"
        },
        "Pa.s"
    ],
    "LiquidThermalConductivity": [
        {
            "eqno": "16",
            "A": "0.079581",
            "B": "-84.501",
            "C": "-1.1134",
            "D": "-0.0025206",
            "E": "2.9748E-07",
            "Tmin": "273.15",
            "Tmax": "450"
        },
        "W/m/K"
    ],
    "VaporThermalConductivity": [
        {
            "eqno": "102",
            "A": "0.000077821",
            "B": "1.0313",
            "C": "528.38",
            "D": "54551",
            "Tmin": "558.15",
            "Tmax": "1000"
        },
        "W/m/K"
    ],
    "RPPHeatCapacityCp": [
        {
            "eqno": "4",
            "A": "-16512",
            "B": "535.08",
            "C": "-0.32273",
            "D": "0.000068445",
            "Tmin": "273.15",
            "Tmax": "1500"
        },
        "J/kmol/K"
    ],
    "RelativeStaticPermittivity": [
        {
            "eqno": "120",
            "A": "4.6",
            "B": "-10000",
            "C": "-45",
            "Tmin": "303",
            "Tmax": "853"
        },
        "_"
    ],
    "AntoineVaporPressure": [
        {
            "eqno": "10",
            "A": "21.827",
            "B": "5019",
            "C": "-73.207",
            "Tmin": "521.53",
            "Tmax": "765.77"
        },
        "Pa"
    ],
    "LiquidViscosityRPS": [
        {
            "eqno": "13",
            "A": "3.0048",
            "B": "-0.032316",
            "C": "0.000023123",
            "Tmin": "300.55",
            "Tmax": "682.4"
        },
        "Pa.s"
    ],
    "COSTALDVolume": [
        "0.327425",
        "m3/kmol"
    ],
    "DiameterLJ": [
        "7.990302E-10",
        "m"
    ],
    "EnergyLJ": [
        "212.828",
        "K"
    ],
    "RacketParameter": [
        "0.257009",
        "_"
    ],
    "FullerVolume": [
        "117.2",
        "_"
    ],
    "Parachor": [
        "0.0454",
        "kg0.25.m3/s0.5/kmol"
    ],
    "SpecificGravity": [
        "1.26697",
        "_"
    ],
    "Charge": [
        "0",
        "_"
    ],
    "CostaldAcentricFactor": [
        "0.377998",
        "_"
    ],
    "WilsonVolume": [
        "0.0952677",
        "m3/kmol"
    ],
    "ChaoSeaderAcentricFactor": [
        "0.377998",
        "_"
    ],
    "ChaoSeaderSolubilityParameter": [
        "26335.8",
        "J0.5/m1.5"
    ],
    "ChaoSeaderLiquidVolume": [
        "0.0952677",
        "m3/kmol"
    ],
    "RadiusOfGyration": [
        "3.309E-10",
        "m"
    ],
    "VanDerWaalsVolume": [
        "0.06122",
        "m3/kmol"
    ],
    "VanDerWaalsArea": [
        "8.0E+08",
        "m2/kmol"
    ],
    "MatthiasCopemanC1": [
        "1.3",
        "_"
    ],
    "SolidDensity": [
        {
            "eqno": "2",
            "A": "13.313",
            "B": "-0.0048955",
            "Tmin": "120.22",
            "Tmax": "300.75"
        },
        "kmol/m3"
    ],
    "SurfaceTension": [
        {
            "eqno": "16",
            "A": "-0.014132",
            "B": "101.47",
            "C": "-3.0694",
            "D": "0.00080277",
            "E": "-0.0000027696",
            "Tmin": "273.15",
            "Tmax": "853"
        },
        "N/m"
    ],
    "MatthiasCopemanC2": [
        "0",
        "_"
    ],
    "UniquacR": [
        "4.0357",
        "_"
    ],
    "UniquacQ": [
        "3.2",
        "_"
    ],
    "ApiSrkS2": [
        "0.000612",
        "_"
    ],
    "MatthiasCopemanC3": [
        "0",
        "_"
    ],
    "SolidHeatCapacityCp": [
        {
            "eqno": "100",
            "A": "-785.07",
            "B": "-58445",
            "C": "597.38",
            "D": "-2.0114",
            "E": "0.0022509",
            "Tmin": "293.15",
            "Tmax": "302.65"
        },
        "J/kmol/K"
    ],
    "UniquacQP": [
        "3.2",
        "_"
    ],
    "ApiSrkS1": [
        "0.169684",
        "_"
    ]
}