{
    "CAS": "132259-10-0",
    "LibraryIndex": "915",
    "CompoundID": "Air",
    "StructureFormula": "(N2)0.781 (O2)0.209 (Ar)0.01",
    "Family": "24",
    "CriticalTemperature": [
        "132.45",
        "K"
    ],
    "CriticalPressure": [
        "3774000",
        "Pa"
    ],
    "CriticalVolume": [
        "0.09147",
        "m3/kmol"
    ],
    "CriticalCompressibility": [
        "0.313",
        "_"
    ],
    "NormalBoilingPointTemperature": [
        "78.67",
        "K"
    ],
    "NormalMeltingPointTemperature": [
        "59.15",
        "K"
    ],
    "TriplePointTemperature": [
        "59.15",
        "K"
    ],
    "TriplePointPressure": [
        "5642.15",
        "Pa"
    ],
    "MolecularWeight": [
        "28.96",
        "kg/kmol"
    ],
    "LiquidVolumeAtNormalBoilingPoint": [
        "0.0329147",
        "m3/kmol"
    ],
    "AcentricityFactor": [
        "0",
        "_"
    ],
    "SolubilityParameter": [
        "12750",
        "J0.5/m1.5"
    ],
    "DipoleMoment": [
        "0",
        "Coulomb.m"
    ],
    "HeatOfFormation": [
        "0",
        "J/kmol"
    ],
    "GibbsEnergyOfFormation": [
        "0",
        "J/kmol"
    ],
    "AbsEntropy": [
        "199000",
        "J/kmol/K"
    ],
    "HeatOfFusionAtMeltingPoint": [
        "0",
        "J/kmol"
    ],
    "HeatOfCombustion": [
        "0",
        "J/kmol"
    ],
    "LiquidDensity": [
        {
            "eqno": "105",
            "A": "2.6731",
            "B": "0.25637",
            "C": "132.51",
            "D": "0.26788",
            "Tmin": "59.15",
            "Tmax": "132.5"
        },
        "kmol/m3"
    ],
    "VaporPressure": [
        {
            "eqno": "101",
            "A": "14.794",
            "B": "-599.85",
            "C": "1.0009",
            "D": "-3.9938E-07",
            "E": "2",
            "Tmin": "59.15",
            "Tmax": "132.5"
        },
        "Pa"
    ],
    "HeatOfVaporization": [
        {
            "eqno": "106",
            "A": "7385651",
            "B": "0.276676",
            "C": "0.211253",
            "D": "-0.836764",
            "E": "0.722737",
            "Tmin": "59.15",
            "Tmax": "132.45"
        },
        "J/kmol"
    ],
    "LiquidHeatCapacityCp": [
        {
            "eqno": "16",
            "A": "53628",
            "B": "4511.1",
            "C": "-143.29",
            "D": "1.582",
            "E": "-0.0051332",
            "Tmin": "75",
            "Tmax": "124"
        },
        "J/kmol/K"
    ],
    "IdealGasHeatCapacityCp": [
        {
            "eqno": "100",
            "A": "29562.29",
            "B": "-7.164949",
            "C": "0.0216294",
            "D": "-0.0000139748",
            "E": "2.89195E-09",
            "Tmin": "50",
            "Tmax": "1500"
        },
        "J/kmol/K"
    ],
    "SecondVirialCoefficient": [
        {
            "eqno": "104",
            "A": "0.043047",
            "B": "-17.122",
            "C": "0.11732",
            "D": "-0.34143",
            "E": "0.30384",
            "Tmin": "118.15",
            "Tmax": "248.15"
        },
        "m3/kmol"
    ],
    "LiquidViscosity": [
        {
            "eqno": "101",
            "A": "-72.336",
            "B": "813.48",
            "C": "12.687",
            "D": "-0.00033062",
            "E": "2",
            "Tmin": "59.15",
            "Tmax": "130"
        },
        "Pa.s"
    ],
    "VaporViscosity": [
        {
            "eqno": "102",
            "A": "0.000001592",
            "B": "0.48975",
            "C": "123.45",
            "D": "-829.58",
            "Tmin": "80",
            "Tmax": "2000"
        },
        "Pa.s"
    ],
    "LiquidThermalConductivity": [
        {
            "eqno": "16",
            "A": "-0.21199",
            "B": "-16.311",
            "C": "-0.23057",
            "D": "-0.0076197",
            "E": "0.0000025018",
            "Tmin": "75",
            "Tmax": "125"
        },
        "W/m/K"
    ],
    "VaporThermalConductivity": [
        {
            "eqno": "102",
            "A": "0.0003511",
            "B": "0.76492",
            "C": "16.071",
            "D": "1084.4",
            "Tmin": "70",
            "Tmax": "2000"
        },
        "W/m/K"
    ],
    "RPPHeatCapacityCp": [
        {
            "eqno": "4",
            "A": "29236",
            "B": "-3.8558",
            "C": "0.012307",
            "D": "-0.0000048402",
            "Tmin": "50",
            "Tmax": "1500"
        },
        "J/kmol/K"
    ],
    "RelativeStaticPermittivity": [
        {
            "eqno": "1",
            "A": "1",
            "Tmin": "100",
            "Tmax": "1500"
        },
        "_"
    ],
    "AntoineVaporPressure": [
        {
            "eqno": "10",
            "A": "20.72",
            "B": "765.88",
            "C": "4.6692",
            "Tmin": "80",
            "Tmax": "119"
        },
        "Pa"
    ],
    "LiquidViscosityRPS": [
        {
            "eqno": "13",
            "A": "-6.8411",
            "B": "-0.020116",
            "C": "-0.000025724",
            "Tmin": "59.15",
            "Tmax": "130"
        },
        "Pa.s"
    ],
    "COSTALDVolume": [
        "0.09147",
        "m3/kmol"
    ],
    "DiameterLJ": [
        "3.711E-10",
        "m"
    ],
    "EnergyLJ": [
        "78.6",
        "K"
    ],
    "RacketParameter": [
        "0.29056",
        "_"
    ],
    "FullerVolume": [
        "19.7",
        "_"
    ],
    "Parachor": [
        "0.00105",
        "kg0.25.m3/s0.5/kmol"
    ],
    "SpecificGravity": [
        "0.879574",
        "_"
    ],
    "Charge": [
        "0",
        "_"
    ],
    "CostaldAcentricFactor": [
        "-0.00787976",
        "_"
    ],
    "WilsonVolume": [
        "0.0329147",
        "m3/kmol"
    ],
    "ChaoSeaderAcentricFactor": [
        "-0.00787976",
        "_"
    ],
    "ChaoSeaderSolubilityParameter": [
        "12749.8",
        "J0.5/m1.5"
    ],
    "ChaoSeaderLiquidVolume": [
        "0.0329147",
        "m3/kmol"
    ]
}