{
    "CAS": "141-93-5",
    "LibraryIndex": "526",
    "CompoundID": "M-diethylbenzene",
    "StructureFormula": "CH3CH2(C6H4)CH2CH3",
    "Family": "17",
    "CriticalTemperature": [
        "663",
        "K"
    ],
    "CriticalPressure": [
        "2880000",
        "Pa"
    ],
    "CriticalVolume": [
        "0.488",
        "m3/kmol"
    ],
    "CriticalCompressibility": [
        "0.255",
        "_"
    ],
    "NormalBoilingPointTemperature": [
        "454.252",
        "K"
    ],
    "NormalMeltingPointTemperature": [
        "189.23",
        "K"
    ],
    "TriplePointTemperature": [
        "189.259",
        "K"
    ],
    "TriplePointPressure": [
        "0.000664991",
        "Pa"
    ],
    "MolecularWeight": [
        "134.2182",
        "kg/kmol"
    ],
    "LiquidVolumeAtNormalBoilingPoint": [
        "0.156083",
        "m3/kmol"
    ],
    "AcentricityFactor": [
        "0.354019",
        "_"
    ],
    "SolubilityParameter": [
        "17460",
        "J0.5/m1.5"
    ],
    "DipoleMoment": [
        "1.2E-30",
        "Coulomb.m"
    ],
    "HeatOfFormation": [
        "-2.18E+07",
        "J/kmol"
    ],
    "GibbsEnergyOfFormation": [
        "1.367E+08",
        "J/kmol"
    ],
    "AbsEntropy": [
        "439500",
        "J/kmol/K"
    ],
    "HeatOfFusionAtMeltingPoint": [
        "1.097E+07",
        "J/kmol"
    ],
    "HeatOfCombustion": [
        "-5.5546E+09",
        "J/kmol"
    ],
    "LiquidDensity": [
        {
            "eqno": "105",
            "A": "0.52578",
            "B": "0.25663",
            "C": "663",
            "D": "0.2955",
            "Tmin": "189.26",
            "Tmax": "638.07"
        },
        "kmol/m3"
    ],
    "VaporPressure": [
        {
            "eqno": "101",
            "A": "153.5552",
            "B": "-11090.88",
            "C": "-19.79091",
            "D": "0.000016846",
            "E": "2",
            "Tmin": "189.26",
            "Tmax": "663"
        },
        "Pa"
    ],
    "HeatOfVaporization": [
        {
            "eqno": "106",
            "A": "6.460804E+07",
            "B": "0.433681",
            "C": "-0.0244308",
            "D": "0.0154888",
            "E": "-0.0245419",
            "Tmin": "189.26",
            "Tmax": "638.07"
        },
        "J/kmol"
    ],
    "LiquidHeatCapacityCp": [
        {
            "eqno": "16",
            "A": "-15019",
            "B": "20.098",
            "C": "11.35",
            "D": "0.0044704",
            "E": "-0.0000034473",
            "Tmin": "189.26",
            "Tmax": "454.29"
        },
        "J/kmol/K"
    ],
    "IdealGasHeatCapacityCp": [
        {
            "eqno": "16",
            "A": "115660",
            "B": "-734.22",
            "C": "13.598",
            "D": "-0.00034186",
            "E": "8.9326E-08",
            "Tmin": "200",
            "Tmax": "1500"
        },
        "J/kmol/K"
    ],
    "SecondVirialCoefficient": [
        {
            "eqno": "104",
            "A": "0.31772",
            "B": "-425.84",
            "C": "-99.203",
            "D": "-21091",
            "E": "370.32",
            "Tmin": "331.5",
            "Tmax": "1500"
        },
        "m3/kmol"
    ],
    "LiquidViscosity": [
        {
            "eqno": "101",
            "A": "-11.504",
            "B": "1313.6",
            "C": "0.03353",
            "D": "-9.5074E-08",
            "E": "2",
            "Tmin": "189.26",
            "Tmax": "454.29"
        },
        "Pa.s"
    ],
    "VaporViscosity": [
        {
            "eqno": "102",
            "A": "0.0000018496",
            "B": "0.38185",
            "C": "552.33",
            "D": "63.517",
            "Tmin": "189.26",
            "Tmax": "1000"
        },
        "Pa.s"
    ],
    "LiquidThermalConductivity": [
        {
            "eqno": "16",
            "A": "-0.056303",
            "B": "5.6194",
            "C": "-1.5408",
            "D": "-0.00033118",
            "E": "-0.0000010873",
            "Tmin": "189.26",
            "Tmax": "454.29"
        },
        "W/m/K"
    ],
    "VaporThermalConductivity": [
        {
            "eqno": "102",
            "A": "0.25407",
            "B": "-0.039016",
            "C": "-216.19",
            "D": "1832400",
            "Tmin": "454.29",
            "Tmax": "1000"
        },
        "W/m/K"
    ],
    "RPPHeatCapacityCp": [
        {
            "eqno": "4",
            "A": "-10213",
            "B": "753.93",
            "C": "-0.40768",
            "D": "0.00008049",
            "Tmin": "200",
            "Tmax": "1500"
        },
        "J/kmol/K"
    ],
    "RelativeStaticPermittivity": [
        {
            "eqno": "120",
            "A": "-1.756835",
            "B": "-1150",
            "C": "-6.9",
            "Tmin": "271.3722",
            "Tmax": "441.3722"
        },
        "_"
    ],
    "AntoineVaporPressure": [
        {
            "eqno": "10",
            "A": "20.511",
            "B": "3266.1",
            "C": "-90.749",
            "Tmin": "398.51",
            "Tmax": "588.2"
        },
        "Pa"
    ],
    "LiquidViscosityRPS": [
        {
            "eqno": "12",
            "A": "-2.2888",
            "B": "-0.01446",
            "Tmin": "189.26",
            "Tmax": "454.29"
        },
        "Pa.s"
    ],
    "COSTALDVolume": [
        "0.501609",
        "m3/kmol"
    ],
    "DiameterLJ": [
        "7.571874E-10",
        "m"
    ],
    "EnergyLJ": [
        "316.2069",
        "K"
    ],
    "RacketParameter": [
        "0.255",
        "_"
    ],
    "FullerVolume": [
        "173.04",
        "_"
    ],
    "Parachor": [
        "0.0633445",
        "kg0.25.m3/s0.5/kmol"
    ],
    "SpecificGravity": [
        "0.868204",
        "_"
    ],
    "Charge": [
        "0",
        "_"
    ],
    "CostaldAcentricFactor": [
        "0.354019",
        "_"
    ],
    "WilsonVolume": [
        "0.156083",
        "m3/kmol"
    ],
    "ChaoSeaderAcentricFactor": [
        "0.354019",
        "_"
    ],
    "ChaoSeaderSolubilityParameter": [
        "17460",
        "J0.5/m1.5"
    ],
    "ChaoSeaderLiquidVolume": [
        "0.156083",
        "m3/kmol"
    ],
    "RadiusOfGyration": [
        "4.742E-10",
        "m"
    ],
    "VanDerWaalsVolume": [
        "0.0911199",
        "m3/kmol"
    ],
    "VanDerWaalsArea": [
        "1.154E+09",
        "m2/kmol"
    ],
    "MatthiasCopemanC1": [
        "1.07091",
        "_"
    ],
    "SolidDensity": [
        {
            "eqno": "2",
            "A": "8.9123",
            "B": "-0.0052595",
            "C": "0",
            "D": "0",
            "E": "0",
            "Tmin": "75.7",
            "Tmax": "189.26"
        },
        "kmol/m3"
    ],
    "SurfaceTension": [
        {
            "eqno": "16",
            "A": "-0.0080943",
            "B": "39.207",
            "C": "-3.1114",
            "D": "0.00028503",
            "E": "-0.0000046024",
            "Tmin": "189.26",
            "Tmax": "638.07"
        },
        "N/m"
    ],
    "MatthiasCopemanC2": [
        "0",
        "_"
    ],
    "UniquacR": [
        "6.0066",
        "_"
    ],
    "UniquacQ": [
        "4.616",
        "_"
    ],
    "ApiSrkS2": [
        "0.01075",
        "_"
    ],
    "MatthiasCopemanC3": [
        "0",
        "_"
    ],
    "SolidHeatCapacityCp": [
        {
            "eqno": "1",
            "A": "214740",
            "Tmin": "0",
            "Tmax": "663"
        },
        "J/kmol/K"
    ],
    "UniquacQP": [
        "4.936",
        "_"
    ],
    "ApiSrkS1": [
        "0.59245",
        "_"
    ]
}