{
    "CAS": "15869-87-1",
    "LibraryIndex": "72",
    "CompoundID": "2,2-dimethyloctane",
    "StructureFormula": "CH3C(CH3)2(CH2)5CH3",
    "Family": "3",
    "CriticalTemperature": [
        "602.4",
        "K"
    ],
    "CriticalPressure": [
        "2110000",
        "Pa"
    ],
    "CriticalVolume": [
        "0.5897",
        "m3/kmol"
    ],
    "CriticalCompressibility": [
        "0.248",
        "_"
    ],
    "NormalBoilingPointTemperature": [
        "430.05",
        "K"
    ],
    "NormalMeltingPointTemperature": [
        "165",
        "K"
    ],
    "TriplePointTemperature": [
        "165",
        "K"
    ],
    "TriplePointPressure": [
        "0.0000151957",
        "Pa"
    ],
    "MolecularWeight": [
        "142.282",
        "kg/kmol"
    ],
    "LiquidVolumeAtNormalBoilingPoint": [
        "0.197405",
        "m3/kmol"
    ],
    "AcentricityFactor": [
        "0.428759",
        "_"
    ],
    "SolubilityParameter": [
        "14870",
        "J0.5/m1.5"
    ],
    "DipoleMoment": [
        "0",
        "Coulomb.m"
    ],
    "HeatOfFormation": [
        "-2.67E+08",
        "J/kmol"
    ],
    "GibbsEnergyOfFormation": [
        "2.6E+07",
        "J/kmol"
    ],
    "AbsEntropy": [
        "511000",
        "J/kmol/K"
    ],
    "HeatOfFusionAtMeltingPoint": [
        "1.7E+07",
        "J/kmol"
    ],
    "HeatOfCombustion": [
        "-6.281E+09",
        "J/kmol"
    ],
    "LiquidDensity": [
        {
            "eqno": "105",
            "A": "0.27519",
            "B": "0.20873",
            "C": "602.4",
            "D": "0.22241",
            "Tmin": "225",
            "Tmax": "602"
        },
        "kmol/m3"
    ],
    "VaporPressure": [
        {
            "eqno": "101",
            "A": "128.2162",
            "B": "-9736.787",
            "C": "-15.87938",
            "D": "0.0000121145",
            "E": "2",
            "Tmin": "225",
            "Tmax": "602"
        },
        "Pa"
    ],
    "HeatOfVaporization": [
        {
            "eqno": "106",
            "A": "6.2139E+07",
            "B": "0.81955",
            "C": "-1.4728",
            "D": "1.7846",
            "E": "-0.74179",
            "Tmin": "225",
            "Tmax": "602"
        },
        "J/kmol"
    ],
    "LiquidHeatCapacityCp": [
        {
            "eqno": "16",
            "A": "130180",
            "B": "214",
            "C": "8.9638",
            "D": "0.010626",
            "E": "-0.0000085091",
            "Tmin": "225",
            "Tmax": "425"
        },
        "J/kmol/K"
    ],
    "IdealGasHeatCapacityCp": [
        {
            "eqno": "16",
            "A": "133300",
            "B": "-582.81",
            "C": "13.49",
            "D": "0.000049115",
            "E": "-1.5637E-08",
            "Tmin": "150",
            "Tmax": "1500"
        },
        "J/kmol/K"
    ],
    "SecondVirialCoefficient": [
        {
            "eqno": "104",
            "A": "0.33556",
            "B": "-413.18",
            "C": "-91.248",
            "D": "-27355",
            "E": "45691",
            "Tmin": "301",
            "Tmax": "1500"
        },
        "m3/kmol"
    ],
    "LiquidViscosity": [
        {
            "eqno": "101",
            "A": "-12.132",
            "B": "1337.2",
            "C": "0.10372",
            "D": "-1.6576E-07",
            "E": "2",
            "Tmin": "225",
            "Tmax": "430.05"
        },
        "Pa.s"
    ],
    "VaporViscosity": [
        {
            "eqno": "102",
            "A": "6.6483E-07",
            "B": "0.48953",
            "C": "292.37",
            "D": "276.07",
            "Tmin": "225",
            "Tmax": "1000"
        },
        "Pa.s"
    ],
    "LiquidThermalConductivity": [
        {
            "eqno": "16",
            "A": "-0.054905",
            "B": "-9.2849",
            "C": "-1.513",
            "D": "-0.00077582",
            "E": "-8.6839E-07",
            "Tmin": "225",
            "Tmax": "430.05"
        },
        "W/m/K"
    ],
    "VaporThermalConductivity": [
        {
            "eqno": "102",
            "A": "0.000023992",
            "B": "1.186",
            "C": "-157.89",
            "D": "154490",
            "Tmin": "430.05",
            "Tmax": "1000"
        },
        "W/m/K"
    ],
    "RPPHeatCapacityCp": [
        {
            "eqno": "4",
            "A": "7717.8",
            "B": "904.09",
            "C": "-0.43608",
            "D": "0.00007608",
            "Tmin": "150",
            "Tmax": "1500"
        },
        "J/kmol/K"
    ],
    "RelativeStaticPermittivity": [
        {
            "eqno": "120",
            "A": "-1.404923",
            "B": "-950",
            "C": "-5.7",
            "Tmin": "274.15",
            "Tmax": "444.15"
        },
        "_"
    ],
    "AntoineVaporPressure": [
        {
            "eqno": "10",
            "A": "21.447",
            "B": "3766.1",
            "C": "-50.805",
            "Tmin": "225",
            "Tmax": "602"
        },
        "Pa"
    ],
    "LiquidViscosityRPS": [
        {
            "eqno": "12",
            "A": "-2.9662",
            "B": "-0.013254",
            "Tmin": "225",
            "Tmax": "430.05"
        },
        "Pa.s"
    ],
    "COSTALDVolume": [
        "0.615981",
        "m3/kmol"
    ],
    "DiameterLJ": [
        "8.338988E-10",
        "m"
    ],
    "EnergyLJ": [
        "259.9107",
        "K"
    ],
    "RacketParameter": [
        "0.248",
        "_"
    ],
    "FullerVolume": [
        "209.82",
        "_"
    ],
    "Parachor": [
        "0.0749304",
        "kg0.25.m3/s0.5/kmol"
    ],
    "SpecificGravity": [
        "0.728014",
        "_"
    ],
    "Charge": [
        "0",
        "_"
    ],
    "CostaldAcentricFactor": [
        "0.428759",
        "_"
    ],
    "WilsonVolume": [
        "0.197405",
        "m3/kmol"
    ],
    "ChaoSeaderAcentricFactor": [
        "0.428759",
        "_"
    ],
    "ChaoSeaderSolubilityParameter": [
        "14870",
        "J0.5/m1.5"
    ],
    "ChaoSeaderLiquidVolume": [
        "0.197405",
        "m3/kmol"
    ],
    "RadiusOfGyration": [
        "5.223E-10",
        "m"
    ],
    "VanDerWaalsVolume": [
        "0.10916",
        "m3/kmol"
    ],
    "VanDerWaalsArea": [
        "1.523E+09",
        "m2/kmol"
    ],
    "MatthiasCopemanC1": [
        "1.15253",
        "_"
    ],
    "SolidDensity": [
        {
            "eqno": "2",
            "A": "6.35",
            "B": "2.3419E-17",
            "C": "0",
            "D": "0",
            "E": "0",
            "Tmin": "0",
            "Tmax": "9.5"
        },
        "kmol/m3"
    ],
    "SurfaceTension": [
        {
            "eqno": "16",
            "A": "-0.0081141",
            "B": "109.26",
            "C": "-3.9929",
            "D": "0.0023215",
            "E": "-0.0000066762",
            "Tmin": "225",
            "Tmax": "602"
        },
        "N/m"
    ],
    "MatthiasCopemanC2": [
        "0",
        "_"
    ],
    "UniquacR": [
        "7.1959",
        "_"
    ],
    "UniquacQ": [
        "6.092",
        "_"
    ],
    "ApiSrkS2": [
        "-0.005733",
        "_"
    ],
    "MatthiasCopemanC3": [
        "0",
        "_"
    ],
    "SolidHeatCapacityCp": [
        {
            "eqno": "1",
            "A": "275220",
            "Tmin": "0",
            "Tmax": "602.4"
        },
        "J/kmol/K"
    ],
    "UniquacQP": [
        "4.936",
        "_"
    ],
    "ApiSrkS1": [
        "0.59245",
        "_"
    ]
}