{
    "CAS": "15869-80-4",
    "LibraryIndex": "94",
    "CompoundID": "3-ethylheptane",
    "StructureFormula": "CH3CH2CH(C2H5)CH2(CH2)2CH3",
    "Family": "4",
    "CriticalTemperature": [
        "594.3",
        "K"
    ],
    "CriticalPressure": [
        "2430000",
        "Pa"
    ],
    "CriticalVolume": [
        "0.5213",
        "m3/kmol"
    ],
    "CriticalCompressibility": [
        "0.257",
        "_"
    ],
    "NormalBoilingPointTemperature": [
        "416.35",
        "K"
    ],
    "NormalMeltingPointTemperature": [
        "158.25",
        "K"
    ],
    "TriplePointTemperature": [
        "158.25",
        "K"
    ],
    "TriplePointPressure": [
        "0.0000277743",
        "Pa"
    ],
    "MolecularWeight": [
        "128.255",
        "kg/kmol"
    ],
    "LiquidVolumeAtNormalBoilingPoint": [
        "0.177515",
        "m3/kmol"
    ],
    "AcentricityFactor": [
        "0.407991",
        "_"
    ],
    "SolubilityParameter": [
        "15300",
        "J0.5/m1.5"
    ],
    "DipoleMoment": [
        "0",
        "Coulomb.m"
    ],
    "HeatOfFormation": [
        "-2.3146E+08",
        "J/kmol"
    ],
    "GibbsEnergyOfFormation": [
        "2.494E+07",
        "J/kmol"
    ],
    "AbsEntropy": [
        "497400",
        "J/kmol/K"
    ],
    "HeatOfFusionAtMeltingPoint": [
        "1.6E+07",
        "J/kmol"
    ],
    "HeatOfCombustion": [
        "-5.6838E+09",
        "J/kmol"
    ],
    "LiquidDensity": [
        {
            "eqno": "105",
            "A": "0.38578",
            "B": "0.23273",
            "C": "594.3",
            "D": "0.25158",
            "Tmin": "158.25",
            "Tmax": "567.28"
        },
        "kmol/m3"
    ],
    "VaporPressure": [
        {
            "eqno": "101",
            "A": "103.6653",
            "B": "-8269.445",
            "C": "-12.32292",
            "D": "0.000012256",
            "E": "2",
            "Tmin": "158.25",
            "Tmax": "590"
        },
        "Pa"
    ],
    "HeatOfVaporization": [
        {
            "eqno": "106",
            "A": "6.3311E+07",
            "B": "1.0505",
            "C": "-1.9581",
            "D": "2.2955",
            "E": "-0.98973",
            "Tmin": "158.25",
            "Tmax": "590"
        },
        "J/kmol"
    ],
    "LiquidHeatCapacityCp": [
        {
            "eqno": "16",
            "A": "29546",
            "B": "-3.2521",
            "C": "11.386",
            "D": "0.0045932",
            "E": "-0.0000035582",
            "Tmin": "158.25",
            "Tmax": "416.35"
        },
        "J/kmol/K"
    ],
    "IdealGasHeatCapacityCp": [
        {
            "eqno": "16",
            "A": "137360",
            "B": "-689.88",
            "C": "13.586",
            "D": "-0.00018791",
            "E": "5.2355E-08",
            "Tmin": "150",
            "Tmax": "1500"
        },
        "J/kmol/K"
    ],
    "SecondVirialCoefficient": [
        {
            "eqno": "104",
            "A": "0.30691",
            "B": "-394.25",
            "C": "-77.102",
            "D": "-21616",
            "E": "36748",
            "Tmin": "297.15",
            "Tmax": "1500"
        },
        "m3/kmol"
    ],
    "LiquidViscosity": [
        {
            "eqno": "101",
            "A": "-11.279",
            "B": "1149.8",
            "C": "-0.019903",
            "D": "1.7111E-07",
            "E": "2",
            "Tmin": "158.25",
            "Tmax": "416.35"
        },
        "Pa.s"
    ],
    "VaporViscosity": [
        {
            "eqno": "102",
            "A": "0.0000007497",
            "B": "0.48637",
            "C": "340.94",
            "D": "-2876.9",
            "Tmin": "158.25",
            "Tmax": "1000"
        },
        "Pa.s"
    ],
    "LiquidThermalConductivity": [
        {
            "eqno": "16",
            "A": "-0.038271",
            "B": "3.4169",
            "C": "-1.6847",
            "D": "-0.00052626",
            "E": "-0.0000013295",
            "Tmin": "158.25",
            "Tmax": "416.35"
        },
        "W/m/K"
    ],
    "VaporThermalConductivity": [
        {
            "eqno": "102",
            "A": "0.000030963",
            "B": "1.1527",
            "C": "-150.17",
            "D": "156710",
            "Tmin": "416.35",
            "Tmax": "1000"
        },
        "W/m/K"
    ],
    "RPPHeatCapacityCp": [
        {
            "eqno": "4",
            "A": "28905",
            "B": "723.1",
            "C": "-0.30251",
            "D": "0.000037455",
            "Tmin": "150",
            "Tmax": "1500"
        },
        "J/kmol/K"
    ],
    "RelativeStaticPermittivity": [
        {
            "eqno": "120",
            "A": "-2.197557",
            "B": "-1450",
            "C": "-8.7",
            "Tmin": "274.15",
            "Tmax": "444.15"
        },
        "_"
    ],
    "AntoineVaporPressure": [
        {
            "eqno": "10",
            "A": "20.883",
            "B": "3285.8",
            "C": "-64.914",
            "Tmin": "362.76",
            "Tmax": "521.83"
        },
        "Pa"
    ],
    "LiquidViscosityRPS": [
        {
            "eqno": "12",
            "A": "-2.3411",
            "B": "-0.016316",
            "Tmin": "158.25",
            "Tmax": "416.35"
        },
        "Pa.s"
    ],
    "COSTALDVolume": [
        "0.550226",
        "m3/kmol"
    ],
    "DiameterLJ": [
        "7.668101E-10",
        "m"
    ],
    "EnergyLJ": [
        "291.5266",
        "K"
    ],
    "RacketParameter": [
        "0.257",
        "_"
    ],
    "FullerVolume": [
        "189.3",
        "_"
    ],
    "Parachor": [
        "0.0682157",
        "kg0.25.m3/s0.5/kmol"
    ],
    "SpecificGravity": [
        "0.730456",
        "_"
    ],
    "Charge": [
        "0",
        "_"
    ],
    "CostaldAcentricFactor": [
        "0.407991",
        "_"
    ],
    "WilsonVolume": [
        "0.177515",
        "m3/kmol"
    ],
    "ChaoSeaderAcentricFactor": [
        "0.407991",
        "_"
    ],
    "ChaoSeaderSolubilityParameter": [
        "15300",
        "J0.5/m1.5"
    ],
    "ChaoSeaderLiquidVolume": [
        "0.177515",
        "m3/kmol"
    ],
    "RadiusOfGyration": [
        "4.953E-10",
        "m"
    ],
    "VanDerWaalsVolume": [
        "0.09894",
        "m3/kmol"
    ],
    "VanDerWaalsArea": [
        "1.368E+09",
        "m2/kmol"
    ],
    "MatthiasCopemanC1": [
        "1.15253",
        "_"
    ],
    "SolidDensity": [
        {
            "eqno": "100",
            "A": "8.1778",
            "B": "-0.0064596",
            "C": "0",
            "D": "0",
            "E": "0",
            "Tmin": "63.3",
            "Tmax": "158.25"
        },
        "kmol/m3"
    ],
    "SurfaceTension": [
        {
            "eqno": "16",
            "A": "-0.011888",
            "B": "12.561",
            "C": "-2.9032",
            "D": "-0.00075797",
            "E": "-0.0000031904",
            "Tmin": "158.25",
            "Tmax": "590"
        },
        "N/m"
    ],
    "MatthiasCopemanC2": [
        "0",
        "_"
    ],
    "UniquacR": [
        "6.5222",
        "_"
    ],
    "UniquacQ": [
        "5.472",
        "_"
    ],
    "ApiSrkS2": [
        "-0.005733",
        "_"
    ],
    "MatthiasCopemanC3": [
        "0",
        "_"
    ],
    "SolidHeatCapacityCp": [
        {
            "eqno": "1",
            "A": "249210",
            "Tmin": "0",
            "Tmax": "594.3"
        },
        "J/kmol/K"
    ],
    "UniquacQP": [
        "4.936",
        "_"
    ],
    "ApiSrkS1": [
        "0.59245",
        "_"
    ]
}