{
    "CAS": "16747-38-9",
    "LibraryIndex": "54",
    "CompoundID": "2,3,3,4-tetramethylpentane",
    "StructureFormula": "(CH3)2CHC(CH3)2CH(CH3)2",
    "Family": "4",
    "CriticalTemperature": [
        "607.1",
        "K"
    ],
    "CriticalPressure": [
        "2670000",
        "Pa"
    ],
    "CriticalVolume": [
        "0.493",
        "m3/kmol"
    ],
    "CriticalCompressibility": [
        "0.261",
        "_"
    ],
    "NormalBoilingPointTemperature": [
        "414.71",
        "K"
    ],
    "NormalMeltingPointTemperature": [
        "171.05",
        "K"
    ],
    "TriplePointTemperature": [
        "171.03",
        "K"
    ],
    "TriplePointPressure": [
        "0.00089642",
        "Pa"
    ],
    "MolecularWeight": [
        "128.258",
        "kg/kmol"
    ],
    "LiquidVolumeAtNormalBoilingPoint": [
        "0.17076",
        "m3/kmol"
    ],
    "AcentricityFactor": [
        "0.313",
        "_"
    ],
    "SolubilityParameter": [
        "15110",
        "J0.5/m1.5"
    ],
    "DipoleMoment": [
        "0",
        "Coulomb.m"
    ],
    "HeatOfFormation": [
        "-2.361E+08",
        "J/kmol"
    ],
    "GibbsEnergyOfFormation": [
        "3.8E+07",
        "J/kmol"
    ],
    "AbsEntropy": [
        "436900",
        "J/kmol/K"
    ],
    "HeatOfFusionAtMeltingPoint": [
        "9000000",
        "J/kmol"
    ],
    "HeatOfCombustion": [
        "-5.6822E+09",
        "J/kmol"
    ],
    "LiquidDensity": [
        {
            "eqno": "105",
            "A": "0.49299",
            "B": "0.25927",
            "C": "607.51",
            "D": "0.27003",
            "Tmin": "171.03",
            "Tmax": "607.5"
        },
        "kmol/m3"
    ],
    "VaporPressure": [
        {
            "eqno": "101",
            "A": "79.047",
            "B": "-7201.2",
            "C": "-8.4677",
            "D": "0.0000051332",
            "E": "2",
            "Tmin": "171.03",
            "Tmax": "607.5"
        },
        "Pa"
    ],
    "HeatOfVaporization": [
        {
            "eqno": "106",
            "A": "5.5207E+07",
            "B": "0.63465",
            "C": "-0.82041",
            "D": "1.0175",
            "E": "-0.45604",
            "Tmin": "171.03",
            "Tmax": "584.53"
        },
        "J/kmol"
    ],
    "LiquidHeatCapacityCp": [
        {
            "eqno": "16",
            "A": "61477",
            "B": "20.611",
            "C": "11.082",
            "D": "0.0041652",
            "E": "-0.0000014763",
            "Tmin": "171.03",
            "Tmax": "414.7"
        },
        "J/kmol/K"
    ],
    "IdealGasHeatCapacityCp": [
        {
            "eqno": "16",
            "A": "50811",
            "B": "-338.13",
            "C": "12.991",
            "D": "0.00056259",
            "E": "-1.7284E-07",
            "Tmin": "200",
            "Tmax": "1500"
        },
        "J/kmol/K"
    ],
    "SecondVirialCoefficient": [
        {
            "eqno": "104",
            "A": "0.30059",
            "B": "-410.94",
            "C": "-73.01",
            "D": "-15607",
            "E": "25044",
            "Tmin": "303.75",
            "Tmax": "1500"
        },
        "m3/kmol"
    ],
    "LiquidViscosity": [
        {
            "eqno": "101",
            "A": "-7.4098",
            "B": "1217",
            "C": "-0.67198",
            "D": "-2.7904E-07",
            "E": "2",
            "Tmin": "171.03",
            "Tmax": "486"
        },
        "Pa.s"
    ],
    "VaporViscosity": [
        {
            "eqno": "102",
            "A": "3.7299E-07",
            "B": "0.59636",
            "C": "289.93",
            "D": "-9056.4",
            "Tmin": "171.03",
            "Tmax": "1000"
        },
        "Pa.s"
    ],
    "LiquidThermalConductivity": [
        {
            "eqno": "16",
            "A": "-0.058699",
            "B": "3.5637",
            "C": "-1.5648",
            "D": "-0.000479",
            "E": "-0.0000010469",
            "Tmin": "171.03",
            "Tmax": "414.7"
        },
        "W/m/K"
    ],
    "VaporThermalConductivity": [
        {
            "eqno": "102",
            "A": "0.000035577",
            "B": "1.1602",
            "C": "-50.424",
            "D": "142790",
            "Tmin": "414.7",
            "Tmax": "1000"
        },
        "W/m/K"
    ],
    "RPPHeatCapacityCp": [
        {
            "eqno": "100",
            "A": "-76402",
            "B": "1346.3",
            "C": "-1.4905",
            "D": "0.001055",
            "E": "-3.2169E-07",
            "Tmin": "200",
            "Tmax": "1000"
        },
        "J/kmol/K"
    ],
    "RelativeStaticPermittivity": [
        {
            "eqno": "120",
            "A": "-2.197557",
            "B": "-1450",
            "C": "-8.7",
            "Tmin": "274.15",
            "Tmax": "444.15"
        },
        "_"
    ],
    "AntoineVaporPressure": [
        {
            "eqno": "10",
            "A": "20.915",
            "B": "3420.9",
            "C": "-50.35",
            "Tmin": "365",
            "Tmax": "538.58"
        },
        "Pa"
    ],
    "LiquidViscosityRPS": [
        {
            "eqno": "12",
            "A": "-2.0446",
            "B": "-0.015849",
            "Tmin": "171.03",
            "Tmax": "486"
        },
        "Pa.s"
    ],
    "COSTALDVolume": [
        "0.550036",
        "m3/kmol"
    ],
    "DiameterLJ": [
        "7.38854E-10",
        "m"
    ],
    "EnergyLJ": [
        "314.8323",
        "K"
    ],
    "RacketParameter": [
        "0.261",
        "_"
    ],
    "FullerVolume": [
        "189.3",
        "_"
    ],
    "Parachor": [
        "0.06644",
        "kg0.25.m3/s0.5/kmol"
    ],
    "SpecificGravity": [
        "0.758871",
        "_"
    ],
    "Charge": [
        "0",
        "_"
    ],
    "CostaldAcentricFactor": [
        "0.313",
        "_"
    ],
    "WilsonVolume": [
        "0.17076",
        "m3/kmol"
    ],
    "ChaoSeaderAcentricFactor": [
        "0.313",
        "_"
    ],
    "ChaoSeaderSolubilityParameter": [
        "15110",
        "J0.5/m1.5"
    ],
    "ChaoSeaderLiquidVolume": [
        "0.17076",
        "m3/kmol"
    ],
    "RadiusOfGyration": [
        "4.2E-10",
        "m"
    ],
    "VanDerWaalsVolume": [
        "0.09891",
        "m3/kmol"
    ],
    "VanDerWaalsArea": [
        "1.386E+09",
        "m2/kmol"
    ],
    "MatthiasCopemanC1": [
        "0.95099",
        "_"
    ],
    "SolidDensity": [
        {
            "eqno": "100",
            "A": "8.3777",
            "B": "-0.006123",
            "C": "0",
            "D": "0",
            "E": "0",
            "Tmin": "68.41",
            "Tmax": "171.03"
        },
        "kmol/m3"
    ],
    "SurfaceTension": [
        {
            "eqno": "16",
            "A": "-0.015328",
            "B": "14.362",
            "C": "-2.9182",
            "D": "-0.00052501",
            "E": "-0.0000026764",
            "Tmin": "171.03",
            "Tmax": "584.53"
        },
        "N/m"
    ],
    "MatthiasCopemanC2": [
        "0",
        "_"
    ],
    "UniquacR": [
        "6.5199",
        "_"
    ],
    "UniquacQ": [
        "5.544",
        "_"
    ],
    "ApiSrkS2": [
        "-0.005733",
        "_"
    ],
    "MatthiasCopemanC3": [
        "0",
        "_"
    ],
    "SolidHeatCapacityCp": [
        {
            "eqno": "1",
            "A": "249210",
            "Tmin": "0",
            "Tmax": "607.1"
        },
        "J/kmol/K"
    ],
    "UniquacQP": [
        "4.936",
        "_"
    ],
    "ApiSrkS1": [
        "0.59245",
        "_"
    ]
}