{
    "CAS": "16747-50-5",
    "LibraryIndex": "116",
    "CompoundID": "1-methyl-1-ethylcyclopentane",
    "StructureFormula": "-C(CH3)(C2H5)CH2CH2CH2CH2-",
    "Family": "6",
    "CriticalTemperature": [
        "582",
        "K"
    ],
    "CriticalPressure": [
        "3020000",
        "Pa"
    ],
    "CriticalVolume": [
        "0.428",
        "m3/kmol"
    ],
    "CriticalCompressibility": [
        "0.267",
        "_"
    ],
    "NormalBoilingPointTemperature": [
        "394.672",
        "K"
    ],
    "NormalMeltingPointTemperature": [
        "129.35",
        "K"
    ],
    "TriplePointTemperature": [
        "129.35",
        "K"
    ],
    "TriplePointPressure": [
        "2.16711E-07",
        "Pa"
    ],
    "MolecularWeight": [
        "112.213",
        "kg/kmol"
    ],
    "LiquidVolumeAtNormalBoilingPoint": [
        "0.144502",
        "m3/kmol"
    ],
    "AcentricityFactor": [
        "0.329811",
        "_"
    ],
    "SolubilityParameter": [
        "15840",
        "J0.5/m1.5"
    ],
    "DipoleMoment": [
        "0",
        "Coulomb.m"
    ],
    "HeatOfFormation": [
        "-1.549E+08",
        "J/kmol"
    ],
    "GibbsEnergyOfFormation": [
        "5.067E+07",
        "J/kmol"
    ],
    "AbsEntropy": [
        "401000",
        "J/kmol/K"
    ],
    "HeatOfFusionAtMeltingPoint": [
        "0",
        "J/kmol"
    ],
    "HeatOfCombustion": [
        "-4.88921E+09",
        "J/kmol"
    ],
    "LiquidDensity": [
        {
            "eqno": "105",
            "A": "0.62398",
            "B": "0.26553",
            "C": "582",
            "D": "0.28568",
            "Tmin": "129.35",
            "Tmax": "582"
        },
        "kmol/m3"
    ],
    "VaporPressure": [
        {
            "eqno": "101",
            "A": "70.30095",
            "B": "-6628.265",
            "C": "-7.112201",
            "D": "3.497931E-06",
            "E": "2",
            "Tmin": "129.35",
            "Tmax": "585"
        },
        "Pa"
    ],
    "HeatOfVaporization": [
        {
            "eqno": "106",
            "A": "5.14848E+07",
            "B": "0.288357",
            "C": "0.487845",
            "D": "-0.669561",
            "E": "0.236062",
            "Tmin": "129.35",
            "Tmax": "582"
        },
        "J/kmol"
    ],
    "LiquidHeatCapacityCp": [
        {
            "eqno": "16",
            "A": "96111",
            "B": "-59.039",
            "C": "10.164",
            "D": "0.0078449",
            "E": "-0.0000067267",
            "Tmin": "298.15",
            "Tmax": "394.67"
        },
        "J/kmol/K"
    ],
    "IdealGasHeatCapacityCp": [
        {
            "eqno": "16",
            "A": "80936",
            "B": "-652.6",
            "C": "13.464",
            "D": "-0.00013102",
            "E": "2.6661E-08",
            "Tmin": "152",
            "Tmax": "1500"
        },
        "J/kmol/K"
    ],
    "SecondVirialCoefficient": [
        {
            "eqno": "104",
            "A": "0.040536",
            "B": "52.83",
            "C": "-127.64",
            "D": "96352",
            "E": "-263290",
            "Tmin": "291",
            "Tmax": "1500"
        },
        "m3/kmol"
    ],
    "LiquidViscosity": [
        {
            "eqno": "101",
            "A": "-10.773",
            "B": "1099.9",
            "C": "-0.048343",
            "D": "1.7107E-07",
            "E": "2",
            "Tmin": "129.35",
            "Tmax": "394.67"
        },
        "Pa.s"
    ],
    "VaporViscosity": [
        {
            "eqno": "102",
            "A": "4.5602E-07",
            "B": "0.57042",
            "C": "274.82",
            "D": "-5055.3",
            "Tmin": "129.35",
            "Tmax": "1000"
        },
        "Pa.s"
    ],
    "LiquidThermalConductivity": [
        {
            "eqno": "16",
            "A": "-0.0033033",
            "B": "9.4359",
            "C": "-1.8646",
            "D": "-0.00027",
            "E": "-0.0000024258",
            "Tmin": "129.35",
            "Tmax": "394.67"
        },
        "W/m/K"
    ],
    "VaporThermalConductivity": [
        {
            "eqno": "102",
            "A": "0.0026462",
            "B": "0.59802",
            "C": "270.85",
            "D": "473470",
            "Tmin": "394.67",
            "Tmax": "1000"
        },
        "W/m/K"
    ],
    "RPPHeatCapacityCp": [
        {
            "eqno": "4",
            "A": "-60886",
            "B": "871.1",
            "C": "-0.51466",
            "D": "0.00011578",
            "Tmin": "152",
            "Tmax": "1500"
        },
        "J/kmol/K"
    ],
    "RelativeStaticPermittivity": [
        {
            "eqno": "120",
            "A": "-1.5046",
            "B": "-1050",
            "C": "-6.3",
            "Tmin": "278.5945",
            "Tmax": "448.5945"
        },
        "_"
    ],
    "AntoineVaporPressure": [
        {
            "eqno": "10",
            "A": "20.867",
            "B": "3227",
            "C": "-49.268",
            "Tmin": "350",
            "Tmax": "520"
        },
        "Pa"
    ],
    "LiquidViscosityRPS": [
        {
            "eqno": "12",
            "A": "-1.1515",
            "B": "-0.01979",
            "Tmin": "129.35",
            "Tmax": "394.67"
        },
        "Pa.s"
    ],
    "COSTALDVolume": [
        "0.445576",
        "m3/kmol"
    ],
    "DiameterLJ": [
        "6.858767E-10",
        "m"
    ],
    "EnergyLJ": [
        "327.5493",
        "K"
    ],
    "RacketParameter": [
        "0.267",
        "_"
    ],
    "FullerVolume": [
        "164.16",
        "_"
    ],
    "Parachor": [
        "0.0567373",
        "kg0.25.m3/s0.5/kmol"
    ],
    "SpecificGravity": [
        "0.785294",
        "_"
    ],
    "Charge": [
        "0",
        "_"
    ],
    "CostaldAcentricFactor": [
        "0.329811",
        "_"
    ],
    "WilsonVolume": [
        "0.144502",
        "m3/kmol"
    ],
    "ChaoSeaderAcentricFactor": [
        "0.329811",
        "_"
    ],
    "ChaoSeaderSolubilityParameter": [
        "15840",
        "J0.5/m1.5"
    ],
    "ChaoSeaderLiquidVolume": [
        "0.144502",
        "m3/kmol"
    ],
    "RadiusOfGyration": [
        "3.773E-10",
        "m"
    ],
    "VanDerWaalsVolume": [
        "0.08182",
        "m3/kmol"
    ],
    "VanDerWaalsArea": [
        "1.099E+09",
        "m2/kmol"
    ],
    "MatthiasCopemanC1": [
        "0.77168",
        "_"
    ],
    "SolidDensity": [
        {
            "eqno": "100",
            "A": "10.333",
            "B": "-0.0099857",
            "C": "0",
            "D": "0",
            "E": "0",
            "Tmin": "51.74",
            "Tmax": "129.35"
        },
        "kmol/m3"
    ],
    "SurfaceTension": [
        {
            "eqno": "16",
            "A": "-0.012274",
            "B": "18.884",
            "C": "-2.9134",
            "D": "-0.00040243",
            "E": "-0.000003859",
            "Tmin": "129.35",
            "Tmax": "582"
        },
        "N/m"
    ],
    "MatthiasCopemanC2": [
        "0.58138",
        "_"
    ],
    "UniquacR": [
        "5.3937",
        "_"
    ],
    "UniquacQ": [
        "4.396",
        "_"
    ],
    "ApiSrkS2": [
        "-0.014972",
        "_"
    ],
    "MatthiasCopemanC3": [
        "-0.73788",
        "_"
    ],
    "SolidHeatCapacityCp": [
        {
            "eqno": "1",
            "A": "208080",
            "Tmin": "0",
            "Tmax": "582"
        },
        "J/kmol/K"
    ],
    "UniquacQP": [
        "4.936",
        "_"
    ],
    "ApiSrkS1": [
        "0.59245",
        "_"
    ]
}