{
    "CAS": "1678-92-8",
    "LibraryIndex": "149",
    "CompoundID": "N-propylcyclohexane",
    "StructureFormula": "(C6H11)CH2CH2CH3",
    "Family": "7",
    "CriticalTemperature": [
        "639.15",
        "K"
    ],
    "CriticalPressure": [
        "2807000",
        "Pa"
    ],
    "CriticalVolume": [
        "0.477",
        "m3/kmol"
    ],
    "CriticalCompressibility": [
        "0.252",
        "_"
    ],
    "NormalBoilingPointTemperature": [
        "429.897",
        "K"
    ],
    "NormalMeltingPointTemperature": [
        "178.25",
        "K"
    ],
    "TriplePointTemperature": [
        "178.25",
        "K"
    ],
    "TriplePointPressure": [
        "0.000859078",
        "Pa"
    ],
    "MolecularWeight": [
        "126.239",
        "kg/kmol"
    ],
    "LiquidVolumeAtNormalBoilingPoint": [
        "0.159758",
        "m3/kmol"
    ],
    "AcentricityFactor": [
        "0.259535",
        "_"
    ],
    "SolubilityParameter": [
        "16350",
        "J0.5/m1.5"
    ],
    "DipoleMoment": [
        "0",
        "Coulomb.m"
    ],
    "HeatOfFormation": [
        "-1.933E+08",
        "J/kmol"
    ],
    "GibbsEnergyOfFormation": [
        "4.738E+07",
        "J/kmol"
    ],
    "AbsEntropy": [
        "419530",
        "J/kmol/K"
    ],
    "HeatOfFusionAtMeltingPoint": [
        "1.037E+07",
        "J/kmol"
    ],
    "HeatOfCombustion": [
        "-5.47966E+09",
        "J/kmol"
    ],
    "LiquidDensity": [
        {
            "eqno": "105",
            "A": "0.55532",
            "B": "0.26594",
            "C": "639.15",
            "D": "0.29886",
            "Tmin": "178.25",
            "Tmax": "639.15"
        },
        "kmol/m3"
    ],
    "VaporPressure": [
        {
            "eqno": "101",
            "A": "82.958",
            "B": "-7871.7",
            "C": "-8.8759",
            "D": "0.0000037842",
            "E": "2",
            "Tmin": "178.25",
            "Tmax": "639.15"
        },
        "Pa"
    ],
    "HeatOfVaporization": [
        {
            "eqno": "106",
            "A": "6.8086E+07",
            "B": "1.2548",
            "C": "-2.1193",
            "D": "2.1809",
            "E": "-0.84474",
            "Tmin": "178.25",
            "Tmax": "639.15"
        },
        "J/kmol"
    ],
    "LiquidHeatCapacityCp": [
        {
            "eqno": "16",
            "A": "47569",
            "B": "39.903",
            "C": "11.009",
            "D": "0.0038436",
            "E": "-0.0000012583",
            "Tmin": "178.25",
            "Tmax": "429.9"
        },
        "J/kmol/K"
    ],
    "IdealGasHeatCapacityCp": [
        {
            "eqno": "16",
            "A": "123230",
            "B": "-835.51",
            "C": "14.003",
            "D": "-0.00055451",
            "E": "1.5912E-07",
            "Tmin": "200",
            "Tmax": "1500"
        },
        "J/kmol/K"
    ],
    "SecondVirialCoefficient": [
        {
            "eqno": "104",
            "A": "0.27598",
            "B": "-333.23",
            "C": "-82.257",
            "D": "-29470",
            "E": "49574",
            "Tmin": "319",
            "Tmax": "1754"
        },
        "m3/kmol"
    ],
    "LiquidViscosity": [
        {
            "eqno": "101",
            "A": "-18.964",
            "B": "1768.3",
            "C": "1.0133",
            "D": "0.0000031666",
            "E": "2",
            "Tmin": "248.15",
            "Tmax": "429.9"
        },
        "Pa.s"
    ],
    "VaporViscosity": [
        {
            "eqno": "102",
            "A": "0.0000010206",
            "B": "0.44533",
            "C": "352.16",
            "D": "7219.8",
            "Tmin": "178.25",
            "Tmax": "1000"
        },
        "Pa.s"
    ],
    "LiquidThermalConductivity": [
        {
            "eqno": "16",
            "A": "-0.049742",
            "B": "3.3035",
            "C": "-1.5814",
            "D": "-0.00048571",
            "E": "-0.000001015",
            "Tmin": "178.25",
            "Tmax": "429.9"
        },
        "W/m/K"
    ],
    "VaporThermalConductivity": [
        {
            "eqno": "102",
            "A": "0.000001205",
            "B": "1.6222",
            "C": "-42.945",
            "D": "15739",
            "Tmin": "429.9",
            "Tmax": "1000"
        },
        "W/m/K"
    ],
    "RPPHeatCapacityCp": [
        {
            "eqno": "4",
            "A": "-62027.8",
            "B": "982.0266",
            "C": "-0.560028",
            "D": "0.000114244",
            "Tmin": "200",
            "Tmax": "1200"
        },
        "J/kmol/K"
    ],
    "RelativeStaticPermittivity": [
        {
            "eqno": "120",
            "A": "-1.796538",
            "B": "-1200",
            "C": "-7.2",
            "Tmin": "274.15",
            "Tmax": "444.15"
        },
        "_"
    ],
    "AntoineVaporPressure": [
        {
            "eqno": "10",
            "A": "20.417",
            "B": "3136.4",
            "C": "-77.095",
            "Tmin": "383.78",
            "Tmax": "566.38"
        },
        "Pa"
    ],
    "LiquidViscosityRPS": [
        {
            "eqno": "13",
            "A": "1.8674",
            "B": "-0.044293",
            "C": "0.000049254",
            "Tmin": "248.15",
            "Tmax": "429.9"
        },
        "Pa.s"
    ],
    "COSTALDVolume": [
        "0.4812",
        "m3/kmol"
    ],
    "DiameterLJ": [
        "7.622026E-10",
        "m"
    ],
    "EnergyLJ": [
        "292.1178",
        "K"
    ],
    "RacketParameter": [
        "0.2599",
        "_"
    ],
    "FullerVolume": [
        "184.68",
        "_"
    ],
    "Parachor": [
        "0.0646",
        "kg0.25.m3/s0.5/kmol"
    ],
    "SpecificGravity": [
        "0.796026",
        "_"
    ],
    "Charge": [
        "0",
        "_"
    ],
    "CostaldAcentricFactor": [
        "0.26539",
        "_"
    ],
    "WilsonVolume": [
        "0.159758",
        "m3/kmol"
    ],
    "ChaoSeaderAcentricFactor": [
        "0.2577",
        "_"
    ],
    "ChaoSeaderSolubilityParameter": [
        "16377.1",
        "J0.5/m1.5"
    ],
    "ChaoSeaderLiquidVolume": [
        "0.159758",
        "m3/kmol"
    ],
    "RadiusOfGyration": [
        "4.367E-10",
        "m"
    ],
    "VanDerWaalsVolume": [
        "0.09092",
        "m3/kmol"
    ],
    "VanDerWaalsArea": [
        "1.157E+09",
        "m2/kmol"
    ],
    "MatthiasCopemanC1": [
        "0.87516",
        "_"
    ],
    "SolidDensity": [
        {
            "eqno": "2",
            "A": "8.8087",
            "B": "-0.005494",
            "Tmin": "71.3",
            "Tmax": "178.25"
        },
        "kmol/m3"
    ],
    "SurfaceTension": [
        {
            "eqno": "16",
            "A": "-0.011029",
            "B": "31.201",
            "C": "-3.1062",
            "D": "0.00016942",
            "E": "-0.000003854",
            "Tmin": "178.25",
            "Tmax": "639.15"
        },
        "N/m"
    ],
    "MatthiasCopemanC2": [
        "0",
        "_"
    ],
    "UniquacR": [
        "6.068799",
        "_"
    ],
    "UniquacQ": [
        "4.856",
        "_"
    ],
    "ApiSrkS2": [
        "-0.007551",
        "_"
    ],
    "MatthiasCopemanC3": [
        "0",
        "_"
    ],
    "SolidHeatCapacityCp": [
        {
            "eqno": "100",
            "A": "-17515",
            "B": "1789.5",
            "C": "-10.949",
            "D": "0.037847",
            "E": "-0.000022183",
            "Tmin": "20.44",
            "Tmax": "166.83"
        },
        "J/kmol/K"
    ],
    "UniquacQP": [
        "4.936",
        "_"
    ],
    "ApiSrkS1": [
        "0.745244",
        "_"
    ]
}