{
    "CAS": "2532-58-3",
    "LibraryIndex": "111",
    "CompoundID": "Cis-1,3-dimethylcyclopentane",
    "StructureFormula": "-CH2CH(CH3)CH2CH(CH3)CH2-",
    "Family": "3",
    "CriticalTemperature": [
        "551",
        "K"
    ],
    "CriticalPressure": [
        "3400000",
        "Pa"
    ],
    "CriticalVolume": [
        "0.3633",
        "m3/kmol"
    ],
    "CriticalCompressibility": [
        "0.277",
        "_"
    ],
    "NormalBoilingPointTemperature": [
        "364.71",
        "K"
    ],
    "NormalMeltingPointTemperature": [
        "139.45",
        "K"
    ],
    "TriplePointTemperature": [
        "139.45",
        "K"
    ],
    "TriplePointPressure": [
        "0.000172698",
        "Pa"
    ],
    "MolecularWeight": [
        "98.188",
        "kg/kmol"
    ],
    "LiquidVolumeAtNormalBoilingPoint": [
        "0.13191",
        "m3/kmol"
    ],
    "AcentricityFactor": [
        "0.276",
        "_"
    ],
    "SolubilityParameter": [
        "15490",
        "J0.5/m1.5"
    ],
    "DipoleMoment": [
        "0",
        "Coulomb.m"
    ],
    "HeatOfFormation": [
        "-1.3585E+08",
        "J/kmol"
    ],
    "GibbsEnergyOfFormation": [
        "3.9204E+07",
        "J/kmol"
    ],
    "AbsEntropy": [
        "366810",
        "J/kmol/K"
    ],
    "HeatOfFusionAtMeltingPoint": [
        "7397000",
        "J/kmol"
    ],
    "HeatOfCombustion": [
        "-4.2771E+09",
        "J/kmol"
    ],
    "LiquidDensity": [
        {
            "eqno": "105",
            "A": "0.77224",
            "B": "0.27858",
            "C": "551",
            "D": "0.31293",
            "Tmin": "139.45",
            "Tmax": "551"
        },
        "kmol/m3"
    ],
    "VaporPressure": [
        {
            "eqno": "101",
            "A": "59.262",
            "B": "-5561.3",
            "C": "-5.5932",
            "D": "0.0000039124",
            "E": "2",
            "Tmin": "139.45",
            "Tmax": "551"
        },
        "Pa"
    ],
    "HeatOfVaporization": [
        {
            "eqno": "106",
            "A": "5.964754E+07",
            "B": "1.992198",
            "C": "-3.906039",
            "D": "3.442342",
            "E": "-1.064932",
            "Tmin": "139.45",
            "Tmax": "551"
        },
        "J/kmol"
    ],
    "LiquidHeatCapacityCp": [
        {
            "eqno": "16",
            "A": "65786",
            "B": "-81.345",
            "C": "11.138",
            "D": "0.0032931",
            "E": "-0.0000013405",
            "Tmin": "210.93",
            "Tmax": "363.92"
        },
        "J/kmol/K"
    ],
    "IdealGasHeatCapacityCp": [
        {
            "eqno": "16",
            "A": "86318",
            "B": "-831.43",
            "C": "13.758",
            "D": "-0.00059782",
            "E": "1.8276E-07",
            "Tmin": "200",
            "Tmax": "1500"
        },
        "J/kmol/K"
    ],
    "SecondVirialCoefficient": [
        {
            "eqno": "104",
            "A": "0.21788",
            "B": "-188.03",
            "C": "-39.482",
            "D": "-9836.4",
            "E": "17510",
            "Tmin": "275.5",
            "Tmax": "2000"
        },
        "m3/kmol"
    ],
    "LiquidViscosity": [
        {
            "eqno": "101",
            "A": "-11.311",
            "B": "1000.6",
            "C": "0.063555",
            "D": "-2.0388E-07",
            "E": "2",
            "Tmin": "139.45",
            "Tmax": "363.92"
        },
        "Pa.s"
    ],
    "VaporViscosity": [
        {
            "eqno": "102",
            "A": "4.8359E-07",
            "B": "0.57388",
            "C": "271.6",
            "D": "-5017.7",
            "Tmin": "139.45",
            "Tmax": "1000"
        },
        "Pa.s"
    ],
    "LiquidThermalConductivity": [
        {
            "eqno": "16",
            "A": "-0.041732",
            "B": "3.5995",
            "C": "-1.581",
            "D": "-0.00048911",
            "E": "-0.0000016476",
            "Tmin": "139.45",
            "Tmax": "363.92"
        },
        "W/m/K"
    ],
    "VaporThermalConductivity": [
        {
            "eqno": "102",
            "A": "0.0021721",
            "B": "0.62882",
            "C": "203.61",
            "D": "446440",
            "Tmin": "363.92",
            "Tmax": "1000"
        },
        "W/m/K"
    ],
    "RPPHeatCapacityCp": [
        {
            "eqno": "100",
            "A": "-20969",
            "B": "503.34",
            "C": "0.22474",
            "D": "-0.00062957",
            "E": "2.7945E-07",
            "Tmin": "298",
            "Tmax": "1000"
        },
        "J/kmol/K"
    ],
    "RelativeStaticPermittivity": [
        {
            "eqno": "120",
            "A": "-1.5046",
            "B": "-1050",
            "C": "-6.3",
            "Tmin": "278.5945",
            "Tmax": "448.5945"
        },
        "_"
    ],
    "AntoineVaporPressure": [
        {
            "eqno": "10",
            "A": "21.065",
            "B": "3078.8",
            "C": "-41.512",
            "Tmin": "332.1",
            "Tmax": "486.02"
        },
        "Pa"
    ],
    "LiquidViscosityRPS": [
        {
            "eqno": "12",
            "A": "-2.0328",
            "B": "-0.018355",
            "Tmin": "139.45",
            "Tmax": "363.92"
        },
        "Pa.s"
    ],
    "COSTALDVolume": [
        "0.379444",
        "m3/kmol"
    ],
    "DiameterLJ": [
        "6.213806E-10",
        "m"
    ],
    "EnergyLJ": [
        "353.9908",
        "K"
    ],
    "RacketParameter": [
        "0.277",
        "_"
    ],
    "FullerVolume": [
        "143.64",
        "_"
    ],
    "Parachor": [
        "0.0501818",
        "kg0.25.m3/s0.5/kmol"
    ],
    "SpecificGravity": [
        "0.750406",
        "_"
    ],
    "Charge": [
        "0",
        "_"
    ],
    "CostaldAcentricFactor": [
        "0.276",
        "_"
    ],
    "WilsonVolume": [
        "0.13191",
        "m3/kmol"
    ],
    "ChaoSeaderAcentricFactor": [
        "0.276",
        "_"
    ],
    "ChaoSeaderSolubilityParameter": [
        "15490",
        "J0.5/m1.5"
    ],
    "ChaoSeaderLiquidVolume": [
        "0.13191",
        "m3/kmol"
    ],
    "RadiusOfGyration": [
        "3.633E-10",
        "m"
    ],
    "VanDerWaalsVolume": [
        "0.07045",
        "m3/kmol"
    ],
    "VanDerWaalsArea": [
        "8.86E+08",
        "m2/kmol"
    ],
    "MatthiasCopemanC1": [
        "0.99405",
        "_"
    ],
    "SolidDensity": [
        {
            "eqno": "2",
            "A": "11.282",
            "B": "-0.0089936",
            "C": "0",
            "D": "0",
            "E": "0",
            "Tmin": "55.78",
            "Tmax": "139.45"
        },
        "kmol/m3"
    ],
    "SurfaceTension": [
        {
            "eqno": "16",
            "A": "-0.0095794",
            "B": "29.018",
            "C": "-3.1051",
            "D": "-0.000049483",
            "E": "-0.00000529",
            "Tmin": "139.45",
            "Tmax": "551"
        },
        "N/m"
    ],
    "MatthiasCopemanC2": [
        "-0.87279",
        "_"
    ],
    "UniquacR": [
        "4.7192",
        "_"
    ],
    "UniquacQ": [
        "3.772",
        "_"
    ],
    "ApiSrkS2": [
        "-0.001337",
        "_"
    ],
    "MatthiasCopemanC3": [
        "1.5932",
        "_"
    ],
    "SolidHeatCapacityCp": [
        {
            "eqno": "1",
            "A": "182070",
            "Tmin": "0",
            "Tmax": "551"
        },
        "J/kmol/K"
    ],
    "UniquacQP": [
        "4.936",
        "_"
    ],
    "ApiSrkS1": [
        "0.59245",
        "_"
    ]
}