{
    "CAS": "2870-04-4",
    "LibraryIndex": "576",
    "CompoundID": "2-ethyl-m-xylene",
    "StructureFormula": "CH3CH2(C6H3)(CH3)2",
    "Family": "17",
    "CriticalTemperature": [
        "670",
        "K"
    ],
    "CriticalPressure": [
        "2960000",
        "Pa"
    ],
    "CriticalVolume": [
        "0.446",
        "m3/kmol"
    ],
    "CriticalCompressibility": [
        "0.261",
        "_"
    ],
    "NormalBoilingPointTemperature": [
        "463.19",
        "K"
    ],
    "NormalMeltingPointTemperature": [
        "257",
        "K"
    ],
    "TriplePointTemperature": [
        "256.89",
        "K"
    ],
    "TriplePointPressure": [
        "2.81505",
        "Pa"
    ],
    "MolecularWeight": [
        "134.218",
        "kg/kmol"
    ],
    "LiquidVolumeAtNormalBoilingPoint": [
        "0.151424",
        "m3/kmol"
    ],
    "AcentricityFactor": [
        "0.405",
        "_"
    ],
    "SolubilityParameter": [
        "18140",
        "J0.5/m1.5"
    ],
    "DipoleMoment": [
        "0",
        "Coulomb.m"
    ],
    "HeatOfFormation": [
        "-2.623E+07",
        "J/kmol"
    ],
    "GibbsEnergyOfFormation": [
        "1.379E+08",
        "J/kmol"
    ],
    "AbsEntropy": [
        "421000",
        "J/kmol/K"
    ],
    "HeatOfFusionAtMeltingPoint": [
        "1.471E+07",
        "J/kmol"
    ],
    "HeatOfCombustion": [
        "-5.548E+09",
        "J/kmol"
    ],
    "LiquidDensity": [
        {
            "eqno": "105",
            "A": "0.55372",
            "B": "0.25979",
            "C": "670",
            "D": "0.29804",
            "Tmin": "256.89",
            "Tmax": "649.2"
        },
        "kmol/m3"
    ],
    "VaporPressure": [
        {
            "eqno": "101",
            "A": "101.54",
            "B": "-9425",
            "C": "-11.552",
            "D": "0.0000057989",
            "E": "2",
            "Tmin": "256.89",
            "Tmax": "671"
        },
        "Pa"
    ],
    "HeatOfVaporization": [
        {
            "eqno": "106",
            "A": "8.2672E+07",
            "B": "1.1027",
            "C": "-0.68529",
            "D": "-0.33367",
            "E": "0.36103",
            "Tmin": "256.89",
            "Tmax": "649.2"
        },
        "J/kmol"
    ],
    "LiquidHeatCapacityCp": [
        {
            "eqno": "16",
            "A": "77646",
            "B": "-101.26",
            "C": "11.392",
            "D": "0.0045401",
            "E": "-0.0000038677",
            "Tmin": "298.15",
            "Tmax": "463.19"
        },
        "J/kmol/K"
    ],
    "IdealGasHeatCapacityCp": [
        {
            "eqno": "16",
            "A": "80902",
            "B": "-471.57",
            "C": "13.059",
            "D": "0.00022749",
            "E": "-9.0171E-08",
            "Tmin": "273",
            "Tmax": "1500"
        },
        "J/kmol/K"
    ],
    "SecondVirialCoefficient": [
        {
            "eqno": "104",
            "A": "0.35368",
            "B": "-470.21",
            "C": "-86.839",
            "D": "-88080",
            "E": "193440",
            "Tmin": "335",
            "Tmax": "1500"
        },
        "m3/kmol"
    ],
    "LiquidViscosity": [
        {
            "eqno": "101",
            "A": "-15.587",
            "B": "1737.4",
            "C": "0.54173",
            "D": "-0.0000007502",
            "E": "2",
            "Tmin": "256.89",
            "Tmax": "463.19"
        },
        "Pa.s"
    ],
    "VaporViscosity": [
        {
            "eqno": "102",
            "A": "0.0000044354",
            "B": "0.29008",
            "C": "895.67",
            "D": "100.88",
            "Tmin": "256.89",
            "Tmax": "1000"
        },
        "Pa.s"
    ],
    "LiquidThermalConductivity": [
        {
            "eqno": "16",
            "A": "-0.038284",
            "B": "-32.06",
            "C": "-1.2755",
            "D": "-0.0012699",
            "E": "-0.0000004068",
            "Tmin": "256.89",
            "Tmax": "463.19"
        },
        "W/m/K"
    ],
    "VaporThermalConductivity": [
        {
            "eqno": "102",
            "A": "0.000097738",
            "B": "1.031",
            "C": "536.66",
            "D": "42862",
            "Tmin": "463.19",
            "Tmax": "1000"
        },
        "W/m/K"
    ],
    "RPPHeatCapacityCp": [
        {
            "eqno": "4",
            "A": "-18638",
            "B": "815.63",
            "C": "-0.4908",
            "D": "0.00011128",
            "Tmin": "273",
            "Tmax": "1500"
        },
        "J/kmol/K"
    ],
    "RelativeStaticPermittivity": [
        {
            "eqno": "120",
            "A": "-1.756835",
            "B": "-1150",
            "C": "-6.9",
            "Tmin": "271.3722",
            "Tmax": "441.3722"
        },
        "_"
    ],
    "AntoineVaporPressure": [
        {
            "eqno": "10",
            "A": "21.219",
            "B": "3842.2",
            "C": "-66.846",
            "Tmin": "406.45",
            "Tmax": "600"
        },
        "Pa"
    ],
    "LiquidViscosityRPS": [
        {
            "eqno": "12",
            "A": "-2.7285",
            "B": "-0.013322",
            "Tmin": "256.89",
            "Tmax": "463.19"
        },
        "Pa.s"
    ],
    "COSTALDVolume": [
        "0.507256",
        "m3/kmol"
    ],
    "DiameterLJ": [
        "7.145862E-10",
        "m"
    ],
    "EnergyLJ": [
        "347.4512",
        "K"
    ],
    "RacketParameter": [
        "0.261",
        "_"
    ],
    "FullerVolume": [
        "173.04",
        "_"
    ],
    "Parachor": [
        "0.0649154",
        "kg0.25.m3/s0.5/kmol"
    ],
    "SpecificGravity": [
        "0.894889",
        "_"
    ],
    "Charge": [
        "0",
        "_"
    ],
    "CostaldAcentricFactor": [
        "0.405",
        "_"
    ],
    "WilsonVolume": [
        "0.151424",
        "m3/kmol"
    ],
    "ChaoSeaderAcentricFactor": [
        "0.405",
        "_"
    ],
    "ChaoSeaderSolubilityParameter": [
        "18140",
        "J0.5/m1.5"
    ],
    "ChaoSeaderLiquidVolume": [
        "0.151424",
        "m3/kmol"
    ],
    "RadiusOfGyration": [
        "4.415E-10",
        "m"
    ],
    "VanDerWaalsVolume": [
        "0.0920399",
        "m3/kmol"
    ],
    "VanDerWaalsArea": [
        "1.161E+09",
        "m2/kmol"
    ],
    "MatthiasCopemanC1": [
        "1.2603",
        "_"
    ],
    "SolidDensity": [
        {
            "eqno": "2",
            "A": "8.6854",
            "B": "-0.0037546",
            "C": "0",
            "D": "0",
            "E": "0",
            "Tmin": "102.76",
            "Tmax": "256.89"
        },
        "kmol/m3"
    ],
    "SurfaceTension": [
        {
            "eqno": "16",
            "A": "-0.0078769",
            "B": "272",
            "C": "-4.9636",
            "D": "0.0055943",
            "E": "-0.0000090797",
            "Tmin": "256.89",
            "Tmax": "649.2"
        },
        "N/m"
    ],
    "MatthiasCopemanC2": [
        "-1.0844",
        "_"
    ],
    "UniquacR": [
        "6.0672",
        "_"
    ],
    "UniquacQ": [
        "4.644",
        "_"
    ],
    "ApiSrkS2": [
        "-0.014791",
        "_"
    ],
    "MatthiasCopemanC3": [
        "1.8602",
        "_"
    ],
    "SolidHeatCapacityCp": [
        {
            "eqno": "100",
            "A": "23735",
            "B": "400.93",
            "C": "5.6",
            "D": "-0.033991",
            "E": "0.000064505",
            "Tmin": "50",
            "Tmax": "256.89"
        },
        "J/kmol/K"
    ],
    "UniquacQP": [
        "4.936",
        "_"
    ],
    "ApiSrkS1": [
        "0.59245",
        "_"
    ]
}