{
    "CAS": "3522-94-9",
    "LibraryIndex": "47",
    "CompoundID": "2,2,5-trimethylhexane",
    "StructureFormula": "CH3C(CH3)2CH2CH2CH(CH3)2",
    "Family": "4",
    "CriticalTemperature": [
        "568.05",
        "K"
    ],
    "CriticalPressure": [
        "2330000",
        "Pa"
    ],
    "CriticalVolume": [
        "0.519",
        "m3/kmol"
    ],
    "CriticalCompressibility": [
        "0.255",
        "_"
    ],
    "NormalBoilingPointTemperature": [
        "397.24",
        "K"
    ],
    "NormalMeltingPointTemperature": [
        "167.39",
        "K"
    ],
    "TriplePointTemperature": [
        "167.39",
        "K"
    ],
    "TriplePointPressure": [
        "0.000968629",
        "Pa"
    ],
    "MolecularWeight": [
        "128.255",
        "kg/kmol"
    ],
    "LiquidVolumeAtNormalBoilingPoint": [
        "0.18225",
        "m3/kmol"
    ],
    "AcentricityFactor": [
        "0.3571",
        "_"
    ],
    "SolubilityParameter": [
        "14380",
        "J0.5/m1.5"
    ],
    "DipoleMoment": [
        "0",
        "Coulomb.m"
    ],
    "HeatOfFormation": [
        "-2.533E+08",
        "J/kmol"
    ],
    "GibbsEnergyOfFormation": [
        "1.38E+07",
        "J/kmol"
    ],
    "AbsEntropy": [
        "461700",
        "J/kmol/K"
    ],
    "HeatOfFusionAtMeltingPoint": [
        "6200000",
        "J/kmol"
    ],
    "HeatOfCombustion": [
        "-5.66643E+09",
        "J/kmol"
    ],
    "LiquidDensity": [
        {
            "eqno": "105",
            "A": "0.45081",
            "B": "0.25256",
            "C": "569.81",
            "D": "0.27357",
            "Tmin": "167.39",
            "Tmax": "569.8"
        },
        "kmol/m3"
    ],
    "VaporPressure": [
        {
            "eqno": "101",
            "A": "133.84",
            "B": "-9023.578",
            "C": "-17.08913",
            "D": "0.0000169305",
            "E": "2",
            "Tmin": "167.39",
            "Tmax": "569.8"
        },
        "Pa"
    ],
    "HeatOfVaporization": [
        {
            "eqno": "106",
            "A": "8.039801E+07",
            "B": "1.702411",
            "C": "-1.574913",
            "D": "0.0056916",
            "E": "0.373292",
            "Tmin": "167.39",
            "Tmax": "548.62"
        },
        "J/kmol"
    ],
    "LiquidHeatCapacityCp": [
        {
            "eqno": "16",
            "A": "84566",
            "B": "233.86",
            "C": "8.46",
            "D": "0.013452",
            "E": "-0.000012421",
            "Tmin": "167.39",
            "Tmax": "397.24"
        },
        "J/kmol/K"
    ],
    "IdealGasHeatCapacityCp": [
        {
            "eqno": "16",
            "A": "102010",
            "B": "-531.68",
            "C": "13.312",
            "D": "0.00017105",
            "E": "-4.7837E-08",
            "Tmin": "150",
            "Tmax": "1500"
        },
        "J/kmol/K"
    ],
    "SecondVirialCoefficient": [
        {
            "eqno": "104",
            "A": "0.30277",
            "B": "-381.25",
            "C": "-61.035",
            "D": "-9428.8",
            "E": "13429",
            "Tmin": "247.39",
            "Tmax": "1500"
        },
        "m3/kmol"
    ],
    "LiquidViscosity": [
        {
            "eqno": "101",
            "A": "-12.084",
            "B": "1011.7",
            "C": "0.13186",
            "D": "-0.000000312",
            "E": "2",
            "Tmin": "167.39",
            "Tmax": "397.24"
        },
        "Pa.s"
    ],
    "VaporViscosity": [
        {
            "eqno": "102",
            "A": "6.7588E-07",
            "B": "0.49876",
            "C": "301.49",
            "D": "-1437",
            "Tmin": "167.39",
            "Tmax": "1000"
        },
        "Pa.s"
    ],
    "LiquidThermalConductivity": [
        {
            "eqno": "16",
            "A": "-0.13721",
            "B": "56.65",
            "C": "-1.9542",
            "D": "0.0024543",
            "E": "-0.0000043702",
            "Tmin": "167.39",
            "Tmax": "397.24"
        },
        "W/m/K"
    ],
    "VaporThermalConductivity": [
        {
            "eqno": "102",
            "A": "0.000030176",
            "B": "1.1642",
            "C": "-156.95",
            "D": "161470",
            "Tmin": "397.24",
            "Tmax": "1000"
        },
        "W/m/K"
    ],
    "RPPHeatCapacityCp": [
        {
            "eqno": "4",
            "A": "-11256",
            "B": "868.51",
            "C": "-0.4353",
            "D": "0.000083238",
            "Tmin": "150",
            "Tmax": "1500"
        },
        "J/kmol/K"
    ],
    "RelativeStaticPermittivity": [
        {
            "eqno": "120",
            "A": "-1.404923",
            "B": "-950",
            "C": "-5.7",
            "Tmin": "274.15",
            "Tmax": "444.15"
        },
        "_"
    ],
    "AntoineVaporPressure": [
        {
            "eqno": "10",
            "A": "20.61",
            "B": "3036.5",
            "C": "-62.963",
            "Tmin": "341.8",
            "Tmax": "506.26"
        },
        "Pa"
    ],
    "LiquidViscosityRPS": [
        {
            "eqno": "12",
            "A": "-3.5103",
            "B": "-0.014267",
            "Tmin": "167.39",
            "Tmax": "397.24"
        },
        "Pa.s"
    ],
    "COSTALDVolume": [
        "0.5501",
        "m3/kmol"
    ],
    "DiameterLJ": [
        "7.728927E-10",
        "m"
    ],
    "EnergyLJ": [
        "270.9221",
        "K"
    ],
    "RacketParameter": [
        "0.255",
        "_"
    ],
    "FullerVolume": [
        "189.3",
        "_"
    ],
    "Parachor": [
        "0.0679927",
        "kg0.25.m3/s0.5/kmol"
    ],
    "SpecificGravity": [
        "0.712422",
        "_"
    ],
    "Charge": [
        "0",
        "_"
    ],
    "CostaldAcentricFactor": [
        "0.3571",
        "_"
    ],
    "WilsonVolume": [
        "0.18225",
        "m3/kmol"
    ],
    "ChaoSeaderAcentricFactor": [
        "0.3571",
        "_"
    ],
    "ChaoSeaderSolubilityParameter": [
        "14380",
        "J0.5/m1.5"
    ],
    "ChaoSeaderLiquidVolume": [
        "0.18225",
        "m3/kmol"
    ],
    "RadiusOfGyration": [
        "4.658E-10",
        "m"
    ],
    "VanDerWaalsVolume": [
        "0.09892",
        "m3/kmol"
    ],
    "VanDerWaalsArea": [
        "1.387E+09",
        "m2/kmol"
    ],
    "MatthiasCopemanC1": [
        "1.047",
        "_"
    ],
    "SolidDensity": [
        {
            "eqno": "2",
            "A": "7.9031",
            "B": "-0.0051346",
            "C": "0",
            "D": "0",
            "E": "0",
            "Tmin": "66.96",
            "Tmax": "167.39"
        },
        "kmol/m3"
    ],
    "SurfaceTension": [
        {
            "eqno": "16",
            "A": "-0.010292",
            "B": "28.787",
            "C": "-3.249",
            "D": "0.00020541",
            "E": "-0.0000047205",
            "Tmin": "167.39",
            "Tmax": "548.62"
        },
        "N/m"
    ],
    "MatthiasCopemanC2": [
        "-0.27819",
        "_"
    ],
    "UniquacR": [
        "6.5207",
        "_"
    ],
    "UniquacQ": [
        "5.548",
        "_"
    ],
    "ApiSrkS2": [
        "-0.000017",
        "_"
    ],
    "MatthiasCopemanC3": [
        "0.67699",
        "_"
    ],
    "SolidHeatCapacityCp": [
        {
            "eqno": "1",
            "A": "249210",
            "Tmin": "0",
            "Tmax": "568.05"
        },
        "J/kmol/K"
    ],
    "UniquacQP": [
        "4.936",
        "_"
    ],
    "ApiSrkS1": [
        "0.59245",
        "_"
    ]
}