{
    "CAS": "3878-46-4",
    "LibraryIndex": "22587",
    "CompoundID": "Ethyl Phenyl Carbonate",
    "StructureFormula": "CH3CH2(OCOO)C6H5",
    "Family": "45",
    "CriticalTemperature": [
        "729.29",
        "K"
    ],
    "CriticalPressure": [
        "2529800",
        "Pa"
    ],
    "CriticalVolume": [
        "0.55209",
        "m3/kmol"
    ],
    "CriticalCompressibility": [
        "0.230336",
        "_"
    ],
    "NormalBoilingPointTemperature": [
        "522.67",
        "K"
    ],
    "NormalMeltingPointTemperature": [
        "258.65",
        "K"
    ],
    "TriplePointTemperature": [
        "273.15",
        "K"
    ],
    "TriplePointPressure": [
        "1825.53",
        "Pa"
    ],
    "MolecularWeight": [
        "166.1762",
        "kg/kmol"
    ],
    "LiquidVolumeAtNormalBoilingPoint": [
        "0.18105",
        "m3/kmol"
    ],
    "AcentricityFactor": [
        "0.54406",
        "_"
    ],
    "SolubilityParameter": [
        "18670.52",
        "J0.5/m1.5"
    ],
    "DipoleMoment": [
        "3.0E-30",
        "Coulomb.m"
    ],
    "HeatOfFormation": [
        "1.138466E+08",
        "J/kmol"
    ],
    "GibbsEnergyOfFormation": [
        "1.263844E+08",
        "J/kmol"
    ],
    "AbsEntropy": [
        "970006.4",
        "J/kmol/K"
    ],
    "HeatOfFusionAtMeltingPoint": [
        "0",
        "J/kmol"
    ],
    "HeatOfCombustion": [
        "-4.867867",
        "J/kmol"
    ],
    "LiquidDensity": [
        {
            "eqno": "105",
            "A": "0.0073625",
            "B": "0.022214",
            "C": "557",
            "D": "0.083013",
            "Tmin": "273.15",
            "Tmax": "548"
        },
        "kmol/m3"
    ],
    "VaporPressure": [
        {
            "eqno": "10",
            "A": "22.88975",
            "B": "5939.5",
            "C": "0",
            "Tmin": "273",
            "Tmax": "729.29"
        },
        "Pa"
    ],
    "HeatOfVaporization": [
        {
            "eqno": "106",
            "A": "5.2005E+07",
            "B": "0.38",
            "C": "0",
            "D": "0",
            "E": "0",
            "Tmin": "299.52",
            "Tmax": "661.14"
        },
        "J/kmol"
    ],
    "LiquidHeatCapacityCp": [
        {
            "eqno": "16",
            "A": "170430",
            "B": "-2560.3",
            "C": "-9.9628",
            "D": "-0.012169",
            "E": "0.000014736",
            "Tmin": "292.95",
            "Tmax": "361.15"
        },
        "J/kmol/K"
    ],
    "IdealGasHeatCapacityCp": [
        {
            "eqno": "4",
            "A": "-38289",
            "B": "684.92",
            "C": "-0.4426",
            "D": "0.0001095",
            "Tmin": "198.342",
            "Tmax": "1500"
        },
        "J/kmol/K"
    ],
    "SecondVirialCoefficient": [
        {
            "eqno": "104",
            "A": "0.17199",
            "B": "-186.08",
            "C": "-30.494",
            "D": "-4242.1",
            "E": "2158.1",
            "Tmin": "274",
            "Tmax": "1500"
        },
        "m3/kmol"
    ],
    "LiquidViscosity": [
        {
            "eqno": "101",
            "A": "-235.18",
            "B": "9633.9",
            "C": "34.904",
            "D": "-0.000038795",
            "E": "2",
            "Tmin": "273.15",
            "Tmax": "438.4"
        },
        "Pa.s"
    ],
    "VaporViscosity": [
        {
            "eqno": "2",
            "A": "-0.0000003703",
            "B": "1.3217E-08",
            "Tmin": "427.89",
            "Tmax": "1000"
        },
        "Pa.s"
    ],
    "LiquidThermalConductivity": [
        {
            "eqno": "16",
            "A": "0.011223",
            "B": "-183.44",
            "C": "0.22279",
            "D": "-0.0056614",
            "E": "0.0000021056",
            "Tmin": "273.15",
            "Tmax": "363.4"
        },
        "W/m/K"
    ],
    "VaporThermalConductivity": [
        {
            "eqno": "102",
            "A": "0.00023689",
            "B": "0.89541",
            "C": "568.87",
            "D": "19356",
            "Tmin": "363.4",
            "Tmax": "1000"
        },
        "W/m/K"
    ],
    "RPPHeatCapacityCp": [
        {
            "eqno": "4",
            "A": "-32096",
            "B": "643.04",
            "C": "-0.37254",
            "D": "0.000089182",
            "Tmin": "198.34",
            "Tmax": "1500"
        },
        "J/kmol/K"
    ],
    "RelativeStaticPermittivity": [
        {
            "eqno": "120",
            "A": "-2.064",
            "B": "-1410",
            "C": "-8.46",
            "Tmin": "280",
            "Tmax": "450"
        },
        "_"
    ],
    "AntoineVaporPressure": [
        {
            "eqno": "10",
            "A": "21.03089",
            "B": "3977.417",
            "C": "-104.2059",
            "Tmin": "418.136",
            "Tmax": "729.29"
        },
        "Pa"
    ],
    "LiquidViscosityRPS": [
        {
            "eqno": "12",
            "A": "-5.3228",
            "B": "-0.0072352",
            "Tmin": "273.15",
            "Tmax": "438.4"
        },
        "Pa.s"
    ],
    "COSTALDVolume": [
        "0.517543",
        "m3/kmol"
    ],
    "DiameterLJ": [
        "7.279963E-10",
        "m"
    ],
    "EnergyLJ": [
        "274.1277",
        "K"
    ],
    "RacketParameter": [
        "0.230336",
        "_"
    ],
    "FullerVolume": [
        "166.23",
        "_"
    ],
    "Parachor": [
        "0.0644",
        "kg0.25.m3/s0.5/kmol"
    ],
    "SpecificGravity": [
        "1.108",
        "_"
    ],
    "Charge": [
        "0",
        "_"
    ],
    "CostaldAcentricFactor": [
        "0.54406",
        "_"
    ],
    "WilsonVolume": [
        "0.18105",
        "m3/kmol"
    ],
    "ChaoSeaderAcentricFactor": [
        "0.54406",
        "_"
    ],
    "ChaoSeaderSolubilityParameter": [
        "20240",
        "J0.5/m1.5"
    ],
    "ChaoSeaderLiquidVolume": [
        "0.18105",
        "m3/kmol"
    ],
    "RadiusOfGyration": [
        "3.247E-10",
        "m"
    ],
    "VanDerWaalsVolume": [
        "0.0937081",
        "m3/kmol"
    ],
    "VanDerWaalsArea": [
        "1.2245E+09",
        "m2/kmol"
    ],
    "MatthiasCopemanC1": [
        "1.16122",
        "_"
    ],
    "SolidDensity": [
        {
            "eqno": "100",
            "A": "15.551",
            "B": "-0.0071164",
            "C": "0",
            "D": "0",
            "E": "0",
            "Tmin": "109.26",
            "Tmax": "273.15"
        },
        "kmol/m3"
    ],
    "SurfaceTension": [
        {
            "eqno": "16",
            "A": "-0.0075981",
            "B": "639.66",
            "C": "-8.4539",
            "D": "0.016647",
            "E": "-0.000022126",
            "Tmin": "273.15",
            "Tmax": "548"
        },
        "N/m"
    ],
    "MatthiasCopemanC2": [
        "0.31086",
        "_"
    ],
    "UniquacR": [
        "6.1772",
        "_"
    ],
    "UniquacQ": [
        "4.898",
        "_"
    ],
    "ApiSrkS2": [
        "0.141244",
        "_"
    ],
    "MatthiasCopemanC3": [
        "0",
        "_"
    ],
    "SolidHeatCapacityCp": [
        {
            "eqno": "1",
            "A": "213870",
            "Tmin": "0",
            "Tmax": "661.14"
        },
        "J/kmol/K"
    ],
    "UniquacQP": [
        "4.936",
        "_"
    ],
    "ApiSrkS1": [
        "0.529899",
        "_"
    ]
}