{
    "CAS": "464-06-2",
    "LibraryIndex": "25",
    "CompoundID": "2,2,3-trimethylbutane",
    "StructureFormula": "(CH3)3CCH(CH3)2",
    "Family": "4",
    "CriticalTemperature": [
        "531.1",
        "K"
    ],
    "CriticalPressure": [
        "2950000",
        "Pa"
    ],
    "CriticalVolume": [
        "0.3976",
        "m3/kmol"
    ],
    "CriticalCompressibility": [
        "0.266",
        "_"
    ],
    "NormalBoilingPointTemperature": [
        "354.01",
        "K"
    ],
    "NormalMeltingPointTemperature": [
        "248.253",
        "K"
    ],
    "TriplePointTemperature": [
        "248.57",
        "K"
    ],
    "TriplePointPressure": [
        "914.054",
        "Pa"
    ],
    "MolecularWeight": [
        "100.204",
        "kg/kmol"
    ],
    "LiquidVolumeAtNormalBoilingPoint": [
        "0.14615",
        "m3/kmol"
    ],
    "AcentricityFactor": [
        "0.25",
        "_"
    ],
    "SolubilityParameter": [
        "14250",
        "J0.5/m1.5"
    ],
    "DipoleMoment": [
        "0",
        "Coulomb.m"
    ],
    "HeatOfFormation": [
        "-2.04765E+08",
        "J/kmol"
    ],
    "GibbsEnergyOfFormation": [
        "4600000",
        "J/kmol"
    ],
    "AbsEntropy": [
        "383340",
        "J/kmol/K"
    ],
    "HeatOfFusionAtMeltingPoint": [
        "2261030",
        "J/kmol"
    ],
    "HeatOfCombustion": [
        "-4.45223E+09",
        "J/kmol"
    ],
    "LiquidDensity": [
        {
            "eqno": "105",
            "A": "0.36152",
            "B": "0.20413",
            "C": "531.16",
            "D": "0.1958",
            "Tmin": "248.57",
            "Tmax": "531.15"
        },
        "kmol/m3"
    ],
    "VaporPressure": [
        {
            "eqno": "101",
            "A": "68.92285",
            "B": "-5729.492",
            "C": "-7.139255",
            "D": "5.482993E-06",
            "E": "2",
            "Tmin": "248.57",
            "Tmax": "532.22"
        },
        "Pa"
    ],
    "HeatOfVaporization": [
        {
            "eqno": "106",
            "A": "4.4282E+07",
            "B": "0.37696",
            "C": "0.13995",
            "D": "-0.28638",
            "E": "0.1473",
            "Tmin": "248.57",
            "Tmax": "531.1"
        },
        "J/kmol"
    ],
    "LiquidHeatCapacityCp": [
        {
            "eqno": "16",
            "A": "95157",
            "B": "-51.889",
            "C": "10.538",
            "D": "0.0057229",
            "E": "-0.0000043706",
            "Tmin": "248.57",
            "Tmax": "354.03"
        },
        "J/kmol/K"
    ],
    "IdealGasHeatCapacityCp": [
        {
            "eqno": "16",
            "A": "64561",
            "B": "-425.21",
            "C": "12.779",
            "D": "0.00055174",
            "E": "-1.7221E-07",
            "Tmin": "200",
            "Tmax": "1500"
        },
        "J/kmol/K"
    ],
    "SecondVirialCoefficient": [
        {
            "eqno": "104",
            "A": "0.14216",
            "B": "-209.59",
            "C": "-43.536",
            "D": "-1884.6",
            "E": "974.47",
            "Tmin": "248.57",
            "Tmax": "1500"
        },
        "m3/kmol"
    ],
    "LiquidViscosity": [
        {
            "eqno": "101",
            "A": "15.143",
            "B": "240.01",
            "C": "-4.2433",
            "D": "0.0000080652",
            "E": "2",
            "Tmin": "248.57",
            "Tmax": "354.03"
        },
        "Pa.s"
    ],
    "VaporViscosity": [
        {
            "eqno": "102",
            "A": "8.5825E-08",
            "B": "0.78963",
            "C": "152.98",
            "D": "-29510",
            "Tmin": "343.45",
            "Tmax": "535.25"
        },
        "Pa.s"
    ],
    "LiquidThermalConductivity": [
        {
            "eqno": "16",
            "A": "0.044619",
            "B": "-214.12",
            "C": "0.30167",
            "D": "-0.0096656",
            "E": "0.0000053979",
            "Tmin": "248.57",
            "Tmax": "354.03"
        },
        "W/m/K"
    ],
    "VaporThermalConductivity": [
        {
            "eqno": "102",
            "A": "0.000030164",
            "B": "1.1874",
            "C": "-102.65",
            "D": "141040",
            "Tmin": "354.03",
            "Tmax": "1000"
        },
        "W/m/K"
    ],
    "RPPHeatCapacityCp": [
        {
            "eqno": "100",
            "A": "-5911.6",
            "B": "611.63",
            "C": "-0.083727",
            "D": "-0.00025093",
            "E": "1.3162E-07",
            "Tmin": "200",
            "Tmax": "1000"
        },
        "J/kmol/K"
    ],
    "RelativeStaticPermittivity": [
        {
            "eqno": "120",
            "A": "-1.404923",
            "B": "-950",
            "C": "-5.7",
            "Tmin": "274.15",
            "Tmax": "444.15"
        },
        "_"
    ],
    "AntoineVaporPressure": [
        {
            "eqno": "10",
            "A": "20.742",
            "B": "2891.8",
            "C": "-40.291",
            "Tmin": "320.3",
            "Tmax": "472.71"
        },
        "Pa"
    ],
    "LiquidViscosityRPS": [
        {
            "eqno": "12",
            "A": "-3.9222",
            "B": "-0.01192",
            "Tmin": "248.57",
            "Tmax": "354.03"
        },
        "Pa.s"
    ],
    "COSTALDVolume": [
        "0.425775",
        "m3/kmol"
    ],
    "DiameterLJ": [
        "6.722577E-10",
        "m"
    ],
    "EnergyLJ": [
        "294.8922",
        "K"
    ],
    "RacketParameter": [
        "0.266",
        "_"
    ],
    "FullerVolume": [
        "148.26",
        "_"
    ],
    "Parachor": [
        "0.0538741",
        "kg0.25.m3/s0.5/kmol"
    ],
    "SpecificGravity": [
        "0.694069",
        "_"
    ],
    "Charge": [
        "0",
        "_"
    ],
    "CostaldAcentricFactor": [
        "0.25",
        "_"
    ],
    "WilsonVolume": [
        "0.14615",
        "m3/kmol"
    ],
    "ChaoSeaderAcentricFactor": [
        "0.25",
        "_"
    ],
    "ChaoSeaderSolubilityParameter": [
        "14250",
        "J0.5/m1.5"
    ],
    "ChaoSeaderLiquidVolume": [
        "0.14615",
        "m3/kmol"
    ],
    "RadiusOfGyration": [
        "3.96E-10",
        "m"
    ],
    "VanDerWaalsVolume": [
        "0.07846",
        "m3/kmol"
    ],
    "VanDerWaalsArea": [
        "1.117E+09",
        "m2/kmol"
    ],
    "MatthiasCopemanC1": [
        "0.90201",
        "_"
    ],
    "SolidDensity": [
        {
            "eqno": "2",
            "A": "9.2018",
            "B": "-0.0041183",
            "C": "0",
            "D": "0",
            "E": "0",
            "Tmin": "99.43",
            "Tmax": "248.57"
        },
        "kmol/m3"
    ],
    "SurfaceTension": [
        {
            "eqno": "16",
            "A": "-0.029346",
            "B": "-148.89",
            "C": "-1.2217",
            "D": "-0.0050964",
            "E": "0.0000023937",
            "Tmin": "248.57",
            "Tmax": "531.1"
        },
        "N/m"
    ],
    "MatthiasCopemanC2": [
        "-0.33657",
        "_"
    ],
    "UniquacR": [
        "5.1719",
        "_"
    ],
    "UniquacQ": [
        "4.468",
        "_"
    ],
    "ApiSrkS2": [
        "-0.004779",
        "_"
    ],
    "MatthiasCopemanC3": [
        "0.64331",
        "_"
    ],
    "SolidHeatCapacityCp": [
        {
            "eqno": "100",
            "A": "-88737",
            "B": "3960",
            "C": "-26.907",
            "D": "0.088352",
            "E": "-0.00010431",
            "Tmin": "109.37",
            "Tmax": "248.58"
        },
        "J/kmol/K"
    ],
    "UniquacQP": [
        "4.936",
        "_"
    ],
    "ApiSrkS1": [
        "0.59245",
        "_"
    ]
}