{
    "CAS": "496-11-7",
    "LibraryIndex": "820",
    "CompoundID": "Indane",
    "StructureFormula": "C6H4(CH2)3",
    "Family": "23",
    "CriticalTemperature": [
        "684.9",
        "K"
    ],
    "CriticalPressure": [
        "3950000",
        "Pa"
    ],
    "CriticalVolume": [
        "0.393",
        "m3/kmol"
    ],
    "CriticalCompressibility": [
        "0.273",
        "_"
    ],
    "NormalBoilingPointTemperature": [
        "451",
        "K"
    ],
    "NormalMeltingPointTemperature": [
        "221.74",
        "K"
    ],
    "TriplePointTemperature": [
        "221.74",
        "K"
    ],
    "TriplePointPressure": [
        "0.152927",
        "Pa"
    ],
    "MolecularWeight": [
        "118.178",
        "kg/kmol"
    ],
    "LiquidVolumeAtNormalBoilingPoint": [
        "0.12315",
        "m3/kmol"
    ],
    "AcentricityFactor": [
        "0.309213",
        "_"
    ],
    "SolubilityParameter": [
        "19420",
        "J0.5/m1.5"
    ],
    "DipoleMoment": [
        "1.8E-30",
        "Coulomb.m"
    ],
    "HeatOfFormation": [
        "6.07E+07",
        "J/kmol"
    ],
    "GibbsEnergyOfFormation": [
        "1.668E+08",
        "J/kmol"
    ],
    "AbsEntropy": [
        "348910",
        "J/kmol/K"
    ],
    "HeatOfFusionAtMeltingPoint": [
        "8598000",
        "J/kmol"
    ],
    "HeatOfCombustion": [
        "-4.7626E+09",
        "J/kmol"
    ],
    "LiquidDensity": [
        {
            "eqno": "105",
            "A": "0.63627",
            "B": "0.25179",
            "C": "684.9",
            "D": "0.29165",
            "Tmin": "221.74",
            "Tmax": "684.9"
        },
        "kmol/m3"
    ],
    "VaporPressure": [
        {
            "eqno": "101",
            "A": "97.02207",
            "B": "-8795.05",
            "C": "-11.00248",
            "D": "6.105132E-06",
            "E": "2",
            "Tmin": "221.74",
            "Tmax": "684.9"
        },
        "Pa"
    ],
    "HeatOfVaporization": [
        {
            "eqno": "106",
            "A": "6.2067E+07",
            "B": "-0.0045874",
            "C": "2.0817",
            "D": "-3.2476",
            "E": "1.6013",
            "Tmin": "221.74",
            "Tmax": "684.9"
        },
        "J/kmol"
    ],
    "LiquidHeatCapacityCp": [
        {
            "eqno": "16",
            "A": "136380",
            "B": "-29.478",
            "C": "8.0608",
            "D": "0.01305",
            "E": "-0.000010993",
            "Tmin": "221.74",
            "Tmax": "451.12"
        },
        "J/kmol/K"
    ],
    "IdealGasHeatCapacityCp": [
        {
            "eqno": "16",
            "A": "60321",
            "B": "-643.06",
            "C": "13.337",
            "D": "-0.00018807",
            "E": "3.6677E-08",
            "Tmin": "200",
            "Tmax": "1500"
        },
        "J/kmol/K"
    ],
    "SecondVirialCoefficient": [
        {
            "eqno": "104",
            "A": "0.087726",
            "B": "-163.08",
            "C": "-117.03",
            "D": "24981",
            "E": "-82865",
            "Tmin": "342.45",
            "Tmax": "1500"
        },
        "m3/kmol"
    ],
    "LiquidViscosity": [
        {
            "eqno": "101",
            "A": "-151.95",
            "B": "6810.2",
            "C": "21.863",
            "D": "-0.00002342",
            "E": "2",
            "Tmin": "221.74",
            "Tmax": "547.92"
        },
        "Pa.s"
    ],
    "VaporViscosity": [
        {
            "eqno": "102",
            "A": "0.0000002842",
            "B": "0.64259",
            "C": "225.95",
            "D": "-643.44",
            "Tmin": "221.74",
            "Tmax": "1000"
        },
        "Pa.s"
    ],
    "LiquidThermalConductivity": [
        {
            "eqno": "16",
            "A": "-0.041318",
            "B": "5.7098",
            "C": "-1.5369",
            "D": "-0.00043639",
            "E": "-0.0000010195",
            "Tmin": "221.74",
            "Tmax": "451.12"
        },
        "W/m/K"
    ],
    "VaporThermalConductivity": [
        {
            "eqno": "102",
            "A": "0.0089527",
            "B": "0.43447",
            "C": "617.91",
            "D": "764370",
            "Tmin": "451.12",
            "Tmax": "1000"
        },
        "W/m/K"
    ],
    "RPPHeatCapacityCp": [
        {
            "eqno": "4",
            "A": "-47835",
            "B": "715.44",
            "C": "-0.41555",
            "D": "0.0000889",
            "Tmin": "200",
            "Tmax": "1500"
        },
        "J/kmol/K"
    ],
    "RelativeStaticPermittivity": [
        {
            "eqno": "120",
            "A": "-2.197557",
            "B": "-1450",
            "C": "-8.7",
            "Tmin": "274.15",
            "Tmax": "444.15"
        },
        "_"
    ],
    "AntoineVaporPressure": [
        {
            "eqno": "10",
            "A": "21.208",
            "B": "3817.3",
            "C": "-56.866",
            "Tmin": "412",
            "Tmax": "611.77"
        },
        "Pa"
    ],
    "LiquidViscosityRPS": [
        {
            "eqno": "13",
            "A": "3.0311",
            "B": "-0.045083",
            "C": "0.000044726",
            "Tmin": "221.74",
            "Tmax": "547.92"
        },
        "Pa.s"
    ],
    "COSTALDVolume": [
        "0.381158",
        "m3/kmol"
    ],
    "DiameterLJ": [
        "6.491035E-10",
        "m"
    ],
    "EnergyLJ": [
        "417.5667",
        "K"
    ],
    "RacketParameter": [
        "0.263427",
        "_"
    ],
    "FullerVolume": [
        "147.9",
        "_"
    ],
    "Parachor": [
        "0.0528",
        "kg0.25.m3/s0.5/kmol"
    ],
    "SpecificGravity": [
        "0.862893",
        "_"
    ],
    "Charge": [
        "0",
        "_"
    ],
    "CostaldAcentricFactor": [
        "0.305",
        "_"
    ],
    "WilsonVolume": [
        "0.123128",
        "m3/kmol"
    ],
    "ChaoSeaderAcentricFactor": [
        "0.305",
        "_"
    ],
    "ChaoSeaderSolubilityParameter": [
        "19405.1",
        "J0.5/m1.5"
    ],
    "ChaoSeaderLiquidVolume": [
        "0.123128",
        "m3/kmol"
    ],
    "RadiusOfGyration": [
        "3.85E-10",
        "m"
    ],
    "VanDerWaalsVolume": [
        "0.07075",
        "m3/kmol"
    ],
    "VanDerWaalsArea": [
        "7.77E+08",
        "m2/kmol"
    ],
    "MatthiasCopemanC1": [
        "0.87712",
        "_"
    ],
    "SolidDensity": [
        {
            "eqno": "2",
            "A": "10.978",
            "B": "-0.0055307",
            "Tmin": "88.7",
            "Tmax": "221.74"
        },
        "kmol/m3"
    ],
    "SurfaceTension": [
        {
            "eqno": "16",
            "A": "-0.0094403",
            "B": "81.588",
            "C": "-3.3664",
            "D": "0.0013789",
            "E": "-0.000005115",
            "Tmin": "221.74",
            "Tmax": "684.9"
        },
        "N/m"
    ],
    "MatthiasCopemanC2": [
        "0.40707",
        "_"
    ],
    "UniquacR": [
        "4.66381",
        "_"
    ],
    "UniquacQ": [
        "3.108",
        "_"
    ],
    "ApiSrkS2": [
        "-0.02812",
        "_"
    ],
    "MatthiasCopemanC3": [
        "-0.85719",
        "_"
    ],
    "SolidHeatCapacityCp": [
        {
            "eqno": "100",
            "A": "-355.12",
            "B": "1287.7",
            "C": "-10.018",
            "D": "0.047026",
            "E": "-0.000077286",
            "Tmin": "50",
            "Tmax": "221.8"
        },
        "J/kmol/K"
    ],
    "UniquacQP": [
        "4.936",
        "_"
    ],
    "ApiSrkS1": [
        "0.745244",
        "_"
    ]
}