{
    "CAS": "50-00-0",
    "LibraryIndex": "1001",
    "CompoundID": "Formaldehyde",
    "StructureFormula": "HCHO",
    "Family": "25",
    "CriticalTemperature": [
        "408",
        "K"
    ],
    "CriticalPressure": [
        "6590000",
        "Pa"
    ],
    "CriticalVolume": [
        "0.115",
        "m3/kmol"
    ],
    "CriticalCompressibility": [
        "0.223",
        "_"
    ],
    "NormalBoilingPointTemperature": [
        "254.05",
        "K"
    ],
    "NormalMeltingPointTemperature": [
        "181.15",
        "K"
    ],
    "TriplePointTemperature": [
        "181.15",
        "K"
    ],
    "TriplePointPressure": [
        "887",
        "Pa"
    ],
    "MolecularWeight": [
        "30.026",
        "kg/kmol"
    ],
    "LiquidVolumeAtNormalBoilingPoint": [
        "0.04097",
        "m3/kmol"
    ],
    "AcentricityFactor": [
        "0.281846",
        "_"
    ],
    "SolubilityParameter": [
        "21190",
        "J0.5/m1.5"
    ],
    "DipoleMoment": [
        "7.77E-30",
        "Coulomb.m"
    ],
    "HeatOfFormation": [
        "-1.086E+08",
        "J/kmol"
    ],
    "GibbsEnergyOfFormation": [
        "-1.026E+08",
        "J/kmol"
    ],
    "AbsEntropy": [
        "218660",
        "J/kmol/K"
    ],
    "HeatOfFusionAtMeltingPoint": [
        "7050000",
        "J/kmol"
    ],
    "HeatOfCombustion": [
        "-5.268E+08",
        "J/kmol"
    ],
    "LiquidDensity": [
        {
            "eqno": "105",
            "A": "1.9413",
            "B": "0.22308",
            "C": "408",
            "D": "0.28569",
            "Tmin": "181.15",
            "Tmax": "396.06"
        },
        "kmol/m3"
    ],
    "VaporPressure": [
        {
            "eqno": "101",
            "A": "62.07923",
            "B": "-4207.675",
            "C": "-6.202287",
            "D": "5.521233E-06",
            "E": "2",
            "Tmin": "163.7",
            "Tmax": "408"
        },
        "Pa"
    ],
    "HeatOfVaporization": [
        {
            "eqno": "106",
            "A": "3.0902E+07",
            "B": "0.29722",
            "C": "-0.051281",
            "D": "0.13234",
            "E": "-0.080686",
            "Tmin": "181.15",
            "Tmax": "396.06"
        },
        "J/kmol"
    ],
    "LiquidHeatCapacityCp": [
        {
            "eqno": "16",
            "A": "62716",
            "B": "-69.453",
            "C": "3.2871",
            "D": "0.047782",
            "E": "-0.0001008",
            "Tmin": "204",
            "Tmax": "304"
        },
        "J/kmol/K"
    ],
    "IdealGasHeatCapacityCp": [
        {
            "eqno": "16",
            "A": "33216.06",
            "B": "-1212.62",
            "C": "11.96032",
            "D": "-0.000635943",
            "E": "1.549232E-07",
            "Tmin": "50",
            "Tmax": "1500"
        },
        "J/kmol/K"
    ],
    "SecondVirialCoefficient": [
        {
            "eqno": "104",
            "A": "0.084764",
            "B": "-73.106",
            "C": "-5.8267",
            "D": "281.42",
            "E": "-763.84",
            "Tmin": "204",
            "Tmax": "2000"
        },
        "m3/kmol"
    ],
    "LiquidViscosity": [
        {
            "eqno": "101",
            "A": "-11.303",
            "B": "753.06",
            "C": "-0.013733",
            "D": "-4.6837E-08",
            "E": "2",
            "Tmin": "181.15",
            "Tmax": "254.05"
        },
        "Pa.s"
    ],
    "VaporViscosity": [
        {
            "eqno": "102",
            "A": "8.1997E-07",
            "B": "0.57256",
            "C": "258.17",
            "D": "-5091",
            "Tmin": "181.15",
            "Tmax": "1000"
        },
        "Pa.s"
    ],
    "LiquidThermalConductivity": [
        {
            "eqno": "16",
            "A": "0.10999",
            "B": "-161.62",
            "C": "0.83463",
            "D": "-0.01142",
            "E": "0.0000060772",
            "Tmin": "204",
            "Tmax": "234"
        },
        "W/m/K"
    ],
    "VaporThermalConductivity": [
        {
            "eqno": "102",
            "A": "44.841",
            "B": "-0.71285",
            "C": "-3466.2",
            "D": "5262100",
            "Tmin": "254.05",
            "Tmax": "994.05"
        },
        "W/m/K"
    ],
    "RPPHeatCapacityCp": [
        {
            "eqno": "4",
            "A": "26385.98",
            "B": "18.47571",
            "C": "0.0478984",
            "D": "-0.000030852",
            "Tmin": "200",
            "Tmax": "1200"
        },
        "J/kmol/K"
    ],
    "RelativeStaticPermittivity": [
        {
            "eqno": "121",
            "A": "1.78",
            "B": "30000",
            "C": "-1",
            "D": "0",
            "E": "70",
            "Tmin": "275.2611",
            "Tmax": "445.2611"
        },
        "_"
    ],
    "AntoineVaporPressure": [
        {
            "eqno": "10",
            "A": "22.331",
            "B": "2684.7",
            "C": "-5.509",
            "Tmin": "244.9",
            "Tmax": "360.24"
        },
        "Pa"
    ],
    "LiquidViscosityRPS": [
        {
            "eqno": "13",
            "A": "-0.78709",
            "B": "-0.049255",
            "C": "0.000075747",
            "Tmin": "181.15",
            "Tmax": "254.05"
        },
        "Pa.s"
    ],
    "COSTALDVolume": [
        "0.10819",
        "m3/kmol"
    ],
    "DiameterLJ": [
        "5.493448E-10",
        "m"
    ],
    "EnergyLJ": [
        "120.0801",
        "K"
    ],
    "RacketParameter": [
        "0.2908",
        "_"
    ],
    "FullerVolume": [
        "26.63",
        "_"
    ],
    "Parachor": [
        "0.0168",
        "kg0.25.m3/s0.5/kmol"
    ],
    "SpecificGravity": [
        "0.752445",
        "_"
    ],
    "Charge": [
        "0",
        "_"
    ],
    "CostaldAcentricFactor": [
        "0.26559",
        "_"
    ],
    "WilsonVolume": [
        "0.0369129",
        "m3/kmol"
    ],
    "ChaoSeaderAcentricFactor": [
        "0.253",
        "_"
    ],
    "ChaoSeaderSolubilityParameter": [
        "23824.8",
        "J0.5/m1.5"
    ],
    "ChaoSeaderLiquidVolume": [
        "0.0369129",
        "m3/kmol"
    ],
    "RadiusOfGyration": [
        "1.215E-10",
        "m"
    ],
    "VanDerWaalsVolume": [
        "0.0186",
        "m3/kmol"
    ],
    "VanDerWaalsArea": [
        "3.09E+08",
        "m2/kmol"
    ],
    "MatthiasCopemanC1": [
        "0.86009",
        "_"
    ],
    "SolidDensity": [
        {
            "eqno": "2",
            "A": "39.262",
            "B": "-0.024084",
            "Tmin": "72.46",
            "Tmax": "181.15"
        },
        "kmol/m3"
    ],
    "SurfaceTension": [
        {
            "eqno": "16",
            "A": "-0.016101",
            "B": "136.53",
            "C": "-3.7004",
            "D": "0.0067657",
            "E": "-0.000021523",
            "Tmin": "181.15",
            "Tmax": "396.06"
        },
        "N/m"
    ],
    "MatthiasCopemanC2": [
        "0",
        "_"
    ],
    "UniquacR": [
        "0.9183",
        "_"
    ],
    "UniquacQ": [
        "0.78",
        "_"
    ],
    "ApiSrkS2": [
        "-0.011016",
        "_"
    ],
    "MatthiasCopemanC3": [
        "0",
        "_"
    ],
    "SolidHeatCapacityCp": [
        {
            "eqno": "1",
            "A": "39430",
            "Tmin": "0",
            "Tmax": "0"
        },
        "J/kmol/K"
    ],
    "UniquacQP": [
        "2.34",
        "_"
    ],
    "ApiSrkS1": [
        "0.975515",
        "_"
    ]
}