{
    "CAS": "513-35-9",
    "LibraryIndex": "214",
    "CompoundID": "2-methyl-2-butene",
    "StructureFormula": "CH3CHC(CH3)CH3",
    "Family": "11",
    "CriticalTemperature": [
        "470",
        "K"
    ],
    "CriticalPressure": [
        "3860000",
        "Pa"
    ],
    "CriticalVolume": [
        "0.292",
        "m3/kmol"
    ],
    "CriticalCompressibility": [
        "0.288",
        "_"
    ],
    "NormalBoilingPointTemperature": [
        "311.7",
        "K"
    ],
    "NormalMeltingPointTemperature": [
        "139.39",
        "K"
    ],
    "TriplePointTemperature": [
        "139.39",
        "K"
    ],
    "TriplePointPressure": [
        "0.01937",
        "Pa"
    ],
    "MolecularWeight": [
        "70.134",
        "kg/kmol"
    ],
    "LiquidVolumeAtNormalBoilingPoint": [
        "0.10757",
        "m3/kmol"
    ],
    "AcentricityFactor": [
        "0.339",
        "_"
    ],
    "SolubilityParameter": [
        "15210",
        "J0.5/m1.5"
    ],
    "DipoleMoment": [
        "1.13E-30",
        "Coulomb.m"
    ],
    "HeatOfFormation": [
        "-4.18E+07",
        "J/kmol"
    ],
    "GibbsEnergyOfFormation": [
        "6.045E+07",
        "J/kmol"
    ],
    "AbsEntropy": [
        "338600",
        "J/kmol/K"
    ],
    "HeatOfFusionAtMeltingPoint": [
        "7597700",
        "J/kmol"
    ],
    "HeatOfCombustion": [
        "-3.1088E+09",
        "J/kmol"
    ],
    "LiquidDensity": [
        {
            "eqno": "105",
            "A": "0.93623",
            "B": "0.2731",
            "C": "470",
            "D": "0.25849",
            "Tmin": "139.39",
            "Tmax": "470"
        },
        "kmol/m3"
    ],
    "VaporPressure": [
        {
            "eqno": "101",
            "A": "82.2327",
            "B": "-5590.502",
            "C": "-9.366663",
            "D": "0.0000104545",
            "E": "2",
            "Tmin": "139.39",
            "Tmax": "470"
        },
        "Pa"
    ],
    "HeatOfVaporization": [
        {
            "eqno": "106",
            "A": "4.3456E+07",
            "B": "0.64226",
            "C": "-0.070051",
            "D": "-0.5395",
            "E": "0.35656",
            "Tmin": "139.39",
            "Tmax": "470"
        },
        "J/kmol"
    ],
    "LiquidHeatCapacityCp": [
        {
            "eqno": "16",
            "A": "127040",
            "B": "1071.7",
            "C": "-7.883",
            "D": "0.075072",
            "E": "-0.000089164",
            "Tmin": "139.39",
            "Tmax": "311.71"
        },
        "J/kmol/K"
    ],
    "IdealGasHeatCapacityCp": [
        {
            "eqno": "16",
            "A": "75343",
            "B": "-774.17",
            "C": "12.975",
            "D": "-0.00022009",
            "E": "6.0763E-08",
            "Tmin": "200",
            "Tmax": "1500"
        },
        "J/kmol/K"
    ],
    "SecondVirialCoefficient": [
        {
            "eqno": "104",
            "A": "0.15944",
            "B": "-148.27",
            "C": "-25.542",
            "D": "2329.9",
            "E": "-6400.9",
            "Tmin": "235",
            "Tmax": "1880"
        },
        "m3/kmol"
    ],
    "LiquidViscosity": [
        {
            "eqno": "101",
            "A": "-11.234",
            "B": "703.42",
            "C": "0.094871",
            "D": "-0.0000017625",
            "E": "2",
            "Tmin": "139.39",
            "Tmax": "311.7"
        },
        "Pa.s"
    ],
    "VaporViscosity": [
        {
            "eqno": "102",
            "A": "8.6256E-07",
            "B": "0.47637",
            "C": "263.56",
            "D": "-2475.7",
            "Tmin": "139.39",
            "Tmax": "1000"
        },
        "Pa.s"
    ],
    "LiquidThermalConductivity": [
        {
            "eqno": "16",
            "A": "-0.050847",
            "B": "3.0532",
            "C": "-1.4724",
            "D": "-0.00063704",
            "E": "-0.0000020121",
            "Tmin": "139.39",
            "Tmax": "311.7"
        },
        "W/m/K"
    ],
    "VaporThermalConductivity": [
        {
            "eqno": "102",
            "A": "0.00020806",
            "B": "0.92265",
            "C": "107.34",
            "D": "175680",
            "Tmin": "311.71",
            "Tmax": "1000"
        },
        "W/m/K"
    ],
    "RPPHeatCapacityCp": [
        {
            "eqno": "100",
            "A": "10310",
            "B": "326.78",
            "C": "0.022449",
            "D": "-0.00020786",
            "E": "9.3122E-08",
            "Tmin": "298",
            "Tmax": "1000"
        },
        "J/kmol/K"
    ],
    "RelativeStaticPermittivity": [
        {
            "eqno": "120",
            "A": "-1.4825",
            "B": "-1000",
            "C": "-6",
            "Tmin": "154",
            "Tmax": "444.15"
        },
        "_"
    ],
    "AntoineVaporPressure": [
        {
            "eqno": "10",
            "A": "21.057",
            "B": "2659.5",
            "C": "-32.673",
            "Tmin": "282.62",
            "Tmax": "417.8"
        },
        "Pa"
    ],
    "LiquidViscosityRPS": [
        {
            "eqno": "13",
            "A": "-0.6872",
            "B": "-0.046426",
            "C": "0.000068039",
            "Tmin": "139.39",
            "Tmax": "311.7"
        },
        "Pa.s"
    ],
    "COSTALDVolume": [
        "0.2883",
        "m3/kmol"
    ],
    "DiameterLJ": [
        "5.513596E-10",
        "m"
    ],
    "EnergyLJ": [
        "347.3953",
        "K"
    ],
    "RacketParameter": [
        "0.260813",
        "_"
    ],
    "FullerVolume": [
        "102.6",
        "_"
    ],
    "Parachor": [
        "0.0386",
        "kg0.25.m3/s0.5/kmol"
    ],
    "SpecificGravity": [
        "0.666109",
        "_"
    ],
    "Charge": [
        "0",
        "_"
    ],
    "CostaldAcentricFactor": [
        "0.28518",
        "_"
    ],
    "WilsonVolume": [
        "0.106707",
        "m3/kmol"
    ],
    "ChaoSeaderAcentricFactor": [
        "0.27667",
        "_"
    ],
    "ChaoSeaderSolubilityParameter": [
        "15247.2",
        "J0.5/m1.5"
    ],
    "ChaoSeaderLiquidVolume": [
        "0.106707",
        "m3/kmol"
    ],
    "RadiusOfGyration": [
        "3.281E-10",
        "m"
    ],
    "VanDerWaalsVolume": [
        "0.05449",
        "m3/kmol"
    ],
    "VanDerWaalsArea": [
        "8.05E+08",
        "m2/kmol"
    ],
    "MatthiasCopemanC1": [
        "0.91429",
        "_"
    ],
    "SolidDensity": [
        {
            "eqno": "2",
            "A": "14.146",
            "B": "-0.010308",
            "Tmin": "55.76",
            "Tmax": "139.39"
        },
        "kmol/m3"
    ],
    "SurfaceTension": [
        {
            "eqno": "16",
            "A": "-0.01137",
            "B": "35.757",
            "C": "-3.2605",
            "D": "0.00094463",
            "E": "-0.0000079469",
            "Tmin": "139.39",
            "Tmax": "470"
        },
        "N/m"
    ],
    "MatthiasCopemanC2": [
        "0.00916",
        "_"
    ],
    "UniquacR": [
        "3.5919",
        "_"
    ],
    "UniquacQ": [
        "3.22",
        "_"
    ],
    "ApiSrkS2": [
        "-0.004255",
        "_"
    ],
    "MatthiasCopemanC3": [
        "-0.46734",
        "_"
    ],
    "SolidHeatCapacityCp": [
        {
            "eqno": "100",
            "A": "-16158",
            "B": "1388.9",
            "C": "-5.5663",
            "D": "0.0010355",
            "E": "0.000064486",
            "Tmin": "20",
            "Tmax": "139.4"
        },
        "J/kmol/K"
    ],
    "UniquacQP": [
        "2.484",
        "_"
    ],
    "ApiSrkS1": [
        "0.745244",
        "_"
    ]
}