{
    "CAS": "538-93-2",
    "LibraryIndex": "519",
    "CompoundID": "Isobutylbenzene",
    "StructureFormula": "(C6H5)CH2CH(CH3)2",
    "Family": "10",
    "CriticalTemperature": [
        "650",
        "K"
    ],
    "CriticalPressure": [
        "3050000",
        "Pa"
    ],
    "CriticalVolume": [
        "0.48",
        "m3/kmol"
    ],
    "CriticalCompressibility": [
        "0.271",
        "_"
    ],
    "NormalBoilingPointTemperature": [
        "445.9",
        "K"
    ],
    "NormalMeltingPointTemperature": [
        "221.7",
        "K"
    ],
    "TriplePointTemperature": [
        "221.7",
        "K"
    ],
    "TriplePointPressure": [
        "0.289087",
        "Pa"
    ],
    "MolecularWeight": [
        "134.221",
        "kg/kmol"
    ],
    "LiquidVolumeAtNormalBoilingPoint": [
        "0.15808",
        "m3/kmol"
    ],
    "AcentricityFactor": [
        "0.383",
        "_"
    ],
    "SolubilityParameter": [
        "16860",
        "J0.5/m1.5"
    ],
    "DipoleMoment": [
        "1.5E-30",
        "Coulomb.m"
    ],
    "HeatOfFormation": [
        "-2.054E+07",
        "J/kmol"
    ],
    "GibbsEnergyOfFormation": [
        "1.388E+08",
        "J/kmol"
    ],
    "AbsEntropy": [
        "439700",
        "J/kmol/K"
    ],
    "HeatOfFusionAtMeltingPoint": [
        "1.25E+07",
        "J/kmol"
    ],
    "HeatOfCombustion": [
        "-5.56974E+09",
        "J/kmol"
    ],
    "LiquidDensity": [
        {
            "eqno": "105",
            "A": "0.54967",
            "B": "0.26271",
            "C": "650",
            "D": "0.30807",
            "Tmin": "221.7",
            "Tmax": "627.46"
        },
        "kmol/m3"
    ],
    "VaporPressure": [
        {
            "eqno": "101",
            "A": "97.24209",
            "B": "-8752.864",
            "C": "-11.04244",
            "D": "6.424651E-06",
            "E": "2",
            "Tmin": "221.7",
            "Tmax": "650"
        },
        "Pa"
    ],
    "HeatOfVaporization": [
        {
            "eqno": "106",
            "A": "6.0838E+07",
            "B": "0.30052",
            "C": "0.25612",
            "D": "-0.19969",
            "E": "-0.0011249",
            "Tmin": "221.7",
            "Tmax": "627.46"
        },
        "J/kmol"
    ],
    "LiquidHeatCapacityCp": [
        {
            "eqno": "16",
            "A": "116150",
            "B": "-36.608",
            "C": "10.189",
            "D": "0.0074074",
            "E": "-0.0000060747",
            "Tmin": "221.7",
            "Tmax": "445.94"
        },
        "J/kmol/K"
    ],
    "IdealGasHeatCapacityCp": [
        {
            "eqno": "16",
            "A": "83364",
            "B": "-556.41",
            "C": "13.277",
            "D": "0.000016037",
            "E": "-2.0047E-08",
            "Tmin": "221.7",
            "Tmax": "1500"
        },
        "J/kmol/K"
    ],
    "SecondVirialCoefficient": [
        {
            "eqno": "104",
            "A": "0.30201",
            "B": "-383.93",
            "C": "-94.545",
            "D": "-4562.5",
            "E": "-39381",
            "Tmin": "325",
            "Tmax": "1500"
        },
        "m3/kmol"
    ],
    "LiquidViscosity": [
        {
            "eqno": "101",
            "A": "-12.546",
            "B": "1392.5",
            "C": "0.17362",
            "D": "-2.3672E-07",
            "E": "2",
            "Tmin": "221.7",
            "Tmax": "445.94"
        },
        "Pa.s"
    ],
    "VaporViscosity": [
        {
            "eqno": "102",
            "A": "3.8764E-07",
            "B": "0.58977",
            "C": "249.51",
            "D": "1034.4",
            "Tmin": "221.7",
            "Tmax": "1000"
        },
        "Pa.s"
    ],
    "LiquidThermalConductivity": [
        {
            "eqno": "16",
            "A": "-0.033263",
            "B": "-23.962",
            "C": "-1.3695",
            "D": "-0.001338",
            "E": "-2.5251E-07",
            "Tmin": "221.7",
            "Tmax": "445.94"
        },
        "W/m/K"
    ],
    "VaporThermalConductivity": [
        {
            "eqno": "102",
            "A": "0.000022162",
            "B": "1.2141",
            "C": "174.06",
            "D": "50162",
            "Tmin": "445.94",
            "Tmax": "1000"
        },
        "W/m/K"
    ],
    "RPPHeatCapacityCp": [
        {
            "eqno": "4",
            "A": "-39186",
            "B": "861.97",
            "C": "-0.52789",
            "D": "0.00012235",
            "Tmin": "298.15",
            "Tmax": "1500"
        },
        "J/kmol/K"
    ],
    "RelativeStaticPermittivity": [
        {
            "eqno": "120",
            "A": "-1.764801",
            "B": "-1150",
            "C": "-6.9",
            "Tmin": "270.8167",
            "Tmax": "440.8167"
        },
        "_"
    ],
    "AntoineVaporPressure": [
        {
            "eqno": "10",
            "A": "21.694",
            "B": "4111.8",
            "C": "-41.494",
            "Tmin": "390.04",
            "Tmax": "582.37"
        },
        "Pa"
    ],
    "LiquidViscosityRPS": [
        {
            "eqno": "12",
            "A": "-2.7768",
            "B": "-0.013263",
            "Tmin": "221.7",
            "Tmax": "445.94"
        },
        "Pa.s"
    ],
    "COSTALDVolume": [
        "0.495922",
        "m3/kmol"
    ],
    "DiameterLJ": [
        "6.99996E-10",
        "m"
    ],
    "EnergyLJ": [
        "385.9366",
        "K"
    ],
    "RacketParameter": [
        "0.271",
        "_"
    ],
    "FullerVolume": [
        "173.04",
        "_"
    ],
    "Parachor": [
        "0.0641263",
        "kg0.25.m3/s0.5/kmol"
    ],
    "SpecificGravity": [
        "0.857681",
        "_"
    ],
    "Charge": [
        "0",
        "_"
    ],
    "CostaldAcentricFactor": [
        "0.383",
        "_"
    ],
    "WilsonVolume": [
        "0.15808",
        "m3/kmol"
    ],
    "ChaoSeaderAcentricFactor": [
        "0.383",
        "_"
    ],
    "ChaoSeaderSolubilityParameter": [
        "16860",
        "J0.5/m1.5"
    ],
    "ChaoSeaderLiquidVolume": [
        "0.15808",
        "m3/kmol"
    ],
    "RadiusOfGyration": [
        "4.555E-10",
        "m"
    ],
    "VanDerWaalsVolume": [
        "0.09019",
        "m3/kmol"
    ],
    "VanDerWaalsArea": [
        "1.146E+09",
        "m2/kmol"
    ],
    "MatthiasCopemanC1": [
        "1.0374",
        "_"
    ],
    "SolidDensity": [
        {
            "eqno": "2",
            "A": "8.6003",
            "B": "-0.0043101",
            "C": "0",
            "D": "0",
            "E": "0",
            "Tmin": "88.68",
            "Tmax": "221.7"
        },
        "kmol/m3"
    ],
    "SurfaceTension": [
        {
            "eqno": "16",
            "A": "-0.0096431",
            "B": "44.533",
            "C": "-3.1993",
            "D": "0.00043442",
            "E": "-0.0000043503",
            "Tmin": "221.7",
            "Tmax": "627.46"
        },
        "N/m"
    ],
    "MatthiasCopemanC2": [
        "0",
        "_"
    ],
    "UniquacR": [
        "5.9452",
        "_"
    ],
    "UniquacQ": [
        "4.584",
        "_"
    ],
    "ApiSrkS2": [
        "-0.013419",
        "_"
    ],
    "MatthiasCopemanC3": [
        "0",
        "_"
    ],
    "SolidHeatCapacityCp": [
        {
            "eqno": "100",
            "A": "6990.9",
            "B": "980.23",
            "C": "-2.1589",
            "D": "0.0063245",
            "E": "-0.0000082806",
            "Tmin": "50",
            "Tmax": "221.7"
        },
        "J/kmol/K"
    ],
    "UniquacQP": [
        "4.936",
        "_"
    ],
    "ApiSrkS1": [
        "0.59245",
        "_"
    ]
}