{
    "CAS": "540-67-0",
    "LibraryIndex": "1407",
    "CompoundID": "Methyl ethyl ether",
    "StructureFormula": "CH3CH2OCH3",
    "Family": "61",
    "CriticalTemperature": [
        "437.8",
        "K"
    ],
    "CriticalPressure": [
        "4400000",
        "Pa"
    ],
    "CriticalVolume": [
        "0.221",
        "m3/kmol"
    ],
    "CriticalCompressibility": [
        "0.267",
        "_"
    ],
    "NormalBoilingPointTemperature": [
        "280.5",
        "K"
    ],
    "NormalMeltingPointTemperature": [
        "160",
        "K"
    ],
    "TriplePointTemperature": [
        "160",
        "K"
    ],
    "TriplePointPressure": [
        "7.85121",
        "Pa"
    ],
    "MolecularWeight": [
        "60.096",
        "kg/kmol"
    ],
    "LiquidVolumeAtNormalBoilingPoint": [
        "0.08585",
        "m3/kmol"
    ],
    "AcentricityFactor": [
        "0.236",
        "_"
    ],
    "SolubilityParameter": [
        "15370",
        "J0.5/m1.5"
    ],
    "DipoleMoment": [
        "4.1E-30",
        "Coulomb.m"
    ],
    "HeatOfFormation": [
        "-2.164E+08",
        "J/kmol"
    ],
    "GibbsEnergyOfFormation": [
        "-1.177E+08",
        "J/kmol"
    ],
    "AbsEntropy": [
        "308810",
        "J/kmol/K"
    ],
    "HeatOfFusionAtMeltingPoint": [
        "7980000",
        "J/kmol"
    ],
    "HeatOfCombustion": [
        "-1.9314E+09",
        "J/kmol"
    ],
    "LiquidDensity": [
        {
            "eqno": "105",
            "A": "1.1195",
            "B": "0.26367",
            "C": "437.86",
            "D": "0.25231",
            "Tmin": "160",
            "Tmax": "437.85"
        },
        "kmol/m3"
    ],
    "VaporPressure": [
        {
            "eqno": "101",
            "A": "63.84",
            "B": "-4659.2",
            "C": "-6.4137",
            "D": "0.0000057727",
            "E": "2",
            "Tmin": "160",
            "Tmax": "437.85"
        },
        "Pa"
    ],
    "HeatOfVaporization": [
        {
            "eqno": "106",
            "A": "1.3679E+08",
            "B": "9.4948",
            "C": "-25.655",
            "D": "28.424",
            "E": "-11.603",
            "Tmin": "160",
            "Tmax": "423.18"
        },
        "J/kmol"
    ],
    "LiquidHeatCapacityCp": [
        {
            "eqno": "16",
            "A": "109050",
            "B": "-31.645",
            "C": "7.7783",
            "D": "0.0084684",
            "E": "0.0000041202",
            "Tmin": "160",
            "Tmax": "291.87"
        },
        "J/kmol/K"
    ],
    "IdealGasHeatCapacityCp": [
        {
            "eqno": "16",
            "A": "60571",
            "B": "-557.18",
            "C": "12.079",
            "D": "0.00048084",
            "E": "-1.7581E-07",
            "Tmin": "150",
            "Tmax": "1500"
        },
        "J/kmol/K"
    ],
    "SecondVirialCoefficient": [
        {
            "eqno": "104",
            "A": "0.11781",
            "B": "-82.964",
            "C": "-11.583",
            "D": "116.91",
            "E": "-410.44",
            "Tmin": "218.9",
            "Tmax": "1751.2"
        },
        "m3/kmol"
    ],
    "LiquidViscosity": [
        {
            "eqno": "101",
            "A": "-11.138",
            "B": "628.05",
            "C": "0.042345",
            "D": "-2.0281E-08",
            "E": "2",
            "Tmin": "160",
            "Tmax": "300"
        },
        "Pa.s"
    ],
    "VaporViscosity": [
        {
            "eqno": "102",
            "A": "2.9661E-07",
            "B": "0.6716",
            "C": "174.02",
            "D": "-2778.1",
            "Tmin": "160",
            "Tmax": "1000"
        },
        "Pa.s"
    ],
    "LiquidThermalConductivity": [
        {
            "eqno": "16",
            "A": "0.029003",
            "B": "34.124",
            "C": "-1.9356",
            "D": "0.0010295",
            "E": "-0.0000079939",
            "Tmin": "123.15",
            "Tmax": "393.15"
        },
        "W/m/K"
    ],
    "VaporThermalConductivity": [
        {
            "eqno": "102",
            "A": "0.00021058",
            "B": "0.94472",
            "C": "515.36",
            "D": "8108.3",
            "Tmin": "273",
            "Tmax": "1000"
        },
        "W/m/K"
    ],
    "RPPHeatCapacityCp": [
        {
            "eqno": "100",
            "A": "33324",
            "B": "178.7",
            "C": "0.14991",
            "D": "-0.00027712",
            "E": "1.1067E-07",
            "Tmin": "100",
            "Tmax": "1000"
        },
        "J/kmol/K"
    ],
    "RelativeStaticPermittivity": [
        {
            "eqno": "120",
            "A": "-2.907471",
            "B": "-1950",
            "C": "-11.7",
            "Tmin": "279.15",
            "Tmax": "449.15"
        },
        "_"
    ],
    "AntoineVaporPressure": [
        {
            "eqno": "10",
            "A": "20.812",
            "B": "2153.4",
            "C": "-48.579",
            "Tmin": "265.35",
            "Tmax": "393.94"
        },
        "Pa"
    ],
    "LiquidViscosityRPS": [
        {
            "eqno": "12",
            "A": "-5.3262",
            "B": "-0.012074",
            "Tmin": "160",
            "Tmax": "300"
        },
        "Pa.s"
    ],
    "COSTALDVolume": [
        "0.218857",
        "m3/kmol"
    ],
    "DiameterLJ": [
        "5.502528E-10",
        "m"
    ],
    "EnergyLJ": [
        "246.3936",
        "K"
    ],
    "RacketParameter": [
        "0.267",
        "_"
    ],
    "FullerVolume": [
        "72.28999",
        "_"
    ],
    "Parachor": [
        "0.0306623",
        "kg0.25.m3/s0.5/kmol"
    ],
    "SpecificGravity": [
        "0.705396",
        "_"
    ],
    "Charge": [
        "0",
        "_"
    ],
    "CostaldAcentricFactor": [
        "0.236",
        "_"
    ],
    "WilsonVolume": [
        "0.08585",
        "m3/kmol"
    ],
    "ChaoSeaderAcentricFactor": [
        "0.236",
        "_"
    ],
    "ChaoSeaderSolubilityParameter": [
        "15370",
        "J0.5/m1.5"
    ],
    "ChaoSeaderLiquidVolume": [
        "0.08585",
        "m3/kmol"
    ],
    "RadiusOfGyration": [
        "2.594E-10",
        "m"
    ],
    "VanDerWaalsVolume": [
        "0.04127",
        "m3/kmol"
    ],
    "VanDerWaalsArea": [
        "6.19E+08",
        "m2/kmol"
    ],
    "MatthiasCopemanC1": [
        "0.81612",
        "_"
    ],
    "SolidDensity": [
        {
            "eqno": "2",
            "A": "16.4",
            "B": "-5.0307E-16",
            "C": "0",
            "D": "0",
            "E": "0",
            "Tmin": "0",
            "Tmax": "9.5"
        },
        "kmol/m3"
    ],
    "SurfaceTension": [
        {
            "eqno": "16",
            "A": "-0.010165",
            "B": "66.837",
            "C": "-3.7084",
            "D": "0.0031429",
            "E": "-0.000012741",
            "Tmin": "160",
            "Tmax": "423.18"
        },
        "N/m"
    ],
    "MatthiasCopemanC2": [
        "-0.44235",
        "_"
    ],
    "UniquacR": [
        "2.7205",
        "_"
    ],
    "UniquacQ": [
        "2.476",
        "_"
    ],
    "ApiSrkS2": [
        "-0.033494",
        "_"
    ],
    "MatthiasCopemanC3": [
        "3.534",
        "_"
    ],
    "SolidHeatCapacityCp": [
        {
            "eqno": "1",
            "A": "106570",
            "Tmin": "0",
            "Tmax": "437.8"
        },
        "J/kmol/K"
    ],
    "UniquacQP": [
        "4.936",
        "_"
    ],
    "ApiSrkS1": [
        "1.025312",
        "_"
    ]
}