{
    "CAS": "540-84-1",
    "LibraryIndex": "41",
    "CompoundID": "2,2,4-trimethylpentane",
    "StructureFormula": "(CH3)3CCH2CH(CH3)2",
    "Family": "4",
    "CriticalTemperature": [
        "543.9",
        "K"
    ],
    "CriticalPressure": [
        "2570000",
        "Pa"
    ],
    "CriticalVolume": [
        "0.4697",
        "m3/kmol"
    ],
    "CriticalCompressibility": [
        "0.266",
        "_"
    ],
    "NormalBoilingPointTemperature": [
        "372.39",
        "K"
    ],
    "NormalMeltingPointTemperature": [
        "165.777",
        "K"
    ],
    "TriplePointTemperature": [
        "165.777",
        "K"
    ],
    "TriplePointPressure": [
        "0.0170695",
        "Pa"
    ],
    "MolecularWeight": [
        "114.231",
        "kg/kmol"
    ],
    "LiquidVolumeAtNormalBoilingPoint": [
        "0.16607",
        "m3/kmol"
    ],
    "AcentricityFactor": [
        "0.304",
        "_"
    ],
    "SolubilityParameter": [
        "14080",
        "J0.5/m1.5"
    ],
    "DipoleMoment": [
        "0",
        "Coulomb.m"
    ],
    "HeatOfFormation": [
        "-2.2401E+08",
        "J/kmol"
    ],
    "GibbsEnergyOfFormation": [
        "1.394E+07",
        "J/kmol"
    ],
    "AbsEntropy": [
        "422960",
        "J/kmol/K"
    ],
    "HeatOfFusionAtMeltingPoint": [
        "9196000",
        "J/kmol"
    ],
    "HeatOfCombustion": [
        "-5.06528E+09",
        "J/kmol"
    ],
    "LiquidDensity": [
        {
            "eqno": "105",
            "A": "0.48523",
            "B": "0.24924",
            "C": "543.9",
            "D": "0.25602",
            "Tmin": "165.78",
            "Tmax": "543.89"
        },
        "kmol/m3"
    ],
    "VaporPressure": [
        {
            "eqno": "101",
            "A": "83.71044",
            "B": "-6701.601",
            "C": "-9.312194",
            "D": "6.808451E-06",
            "E": "2",
            "Tmin": "165.78",
            "Tmax": "543.89"
        },
        "Pa"
    ],
    "HeatOfVaporization": [
        {
            "eqno": "106",
            "A": "4.633E+07",
            "B": "0.37451",
            "C": "-0.066775",
            "D": "-0.010135",
            "E": "0.080832",
            "Tmin": "165.78",
            "Tmax": "543.8"
        },
        "J/kmol"
    ],
    "LiquidHeatCapacityCp": [
        {
            "eqno": "16",
            "A": "159470",
            "B": "-380.54",
            "C": "12.372",
            "D": "-0.00044236",
            "E": "0.0000034887",
            "Tmin": "165.78",
            "Tmax": "520"
        },
        "J/kmol/K"
    ],
    "IdealGasHeatCapacityCp": [
        {
            "eqno": "16",
            "A": "84635",
            "B": "-470.35",
            "C": "13.011",
            "D": "0.00041124",
            "E": "-1.2926E-07",
            "Tmin": "200",
            "Tmax": "1500"
        },
        "J/kmol/K"
    ],
    "SecondVirialCoefficient": [
        {
            "eqno": "104",
            "A": "0.26688",
            "B": "-321.67",
            "C": "-47.437",
            "D": "-5317.2",
            "E": "7275.9",
            "Tmin": "271.9",
            "Tmax": "1771"
        },
        "m3/kmol"
    ],
    "LiquidViscosity": [
        {
            "eqno": "101",
            "A": "-22.241",
            "B": "1365.6",
            "C": "1.8379",
            "D": "-0.0000051189",
            "E": "2",
            "Tmin": "165.78",
            "Tmax": "541.15"
        },
        "Pa.s"
    ],
    "VaporViscosity": [
        {
            "eqno": "102",
            "A": "1.9933E-07",
            "B": "0.67222",
            "C": "163.02",
            "D": "-5306.3",
            "Tmin": "165.78",
            "Tmax": "1000"
        },
        "Pa.s"
    ],
    "LiquidThermalConductivity": [
        {
            "eqno": "16",
            "A": "0.044744",
            "B": "-42.414",
            "C": "-1.7361",
            "D": "-0.0023225",
            "E": "-0.0000040597",
            "Tmin": "165.78",
            "Tmax": "372.39"
        },
        "W/m/K"
    ],
    "VaporThermalConductivity": [
        {
            "eqno": "102",
            "A": "0.000011401",
            "B": "1.3632",
            "C": "286.23",
            "D": "6065.2",
            "Tmin": "355.15",
            "Tmax": "1000"
        },
        "W/m/K"
    ],
    "RPPHeatCapacityCp": [
        {
            "eqno": "100",
            "A": "3192.8",
            "B": "640.7",
            "C": "0.055291",
            "D": "-0.0004627",
            "E": "2.1776E-07",
            "Tmin": "200",
            "Tmax": "1000"
        },
        "J/kmol/K"
    ],
    "RelativeStaticPermittivity": [
        {
            "eqno": "120",
            "A": "-2.197557",
            "B": "-1450",
            "C": "-8.7",
            "Tmin": "274.15",
            "Tmax": "444.15"
        },
        "_"
    ],
    "AntoineVaporPressure": [
        {
            "eqno": "10",
            "A": "20.714",
            "B": "2972",
            "C": "-48.851",
            "Tmin": "327.85",
            "Tmax": "488.15"
        },
        "Pa"
    ],
    "LiquidViscosityRPS": [
        {
            "eqno": "13",
            "A": "-1.727",
            "B": "-0.025461",
            "C": "0.000019917",
            "Tmin": "165.78",
            "Tmax": "541.15"
        },
        "Pa.s"
    ],
    "COSTALDVolume": [
        "0.47894",
        "m3/kmol"
    ],
    "DiameterLJ": [
        "7.106578E-10",
        "m"
    ],
    "EnergyLJ": [
        "301.9995",
        "K"
    ],
    "RacketParameter": [
        "0.2567",
        "_"
    ],
    "FullerVolume": [
        "168.78",
        "_"
    ],
    "Parachor": [
        "0.0608",
        "kg0.25.m3/s0.5/kmol"
    ],
    "SpecificGravity": [
        "0.694955",
        "_"
    ],
    "Charge": [
        "0",
        "_"
    ],
    "CostaldAcentricFactor": [
        "0.3045",
        "_"
    ],
    "WilsonVolume": [
        "0.165452",
        "m3/kmol"
    ],
    "ChaoSeaderAcentricFactor": [
        "0.3033",
        "_"
    ],
    "ChaoSeaderSolubilityParameter": [
        "14050.5",
        "J0.5/m1.5"
    ],
    "ChaoSeaderLiquidVolume": [
        "0.165452",
        "m3/kmol"
    ],
    "RadiusOfGyration": [
        "4.091E-10",
        "m"
    ],
    "VanDerWaalsVolume": [
        "0.08869",
        "m3/kmol"
    ],
    "VanDerWaalsArea": [
        "1.252E+09",
        "m2/kmol"
    ],
    "MatthiasCopemanC1": [
        "0.97675",
        "_"
    ],
    "SolidDensity": [
        {
            "eqno": "2",
            "A": "8.773",
            "B": "-0.0058781",
            "Tmin": "66.31",
            "Tmax": "165.78"
        },
        "kmol/m3"
    ],
    "SurfaceTension": [
        {
            "eqno": "16",
            "A": "-0.0097592",
            "B": "31.944",
            "C": "-3.3103",
            "D": "0.0003744",
            "E": "-0.0000053994",
            "Tmin": "165.78",
            "Tmax": "543.8"
        },
        "N/m"
    ],
    "MatthiasCopemanC2": [
        "-0.38564",
        "_"
    ],
    "UniquacR": [
        "5.85",
        "_"
    ],
    "UniquacQ": [
        "4.94",
        "_"
    ],
    "ApiSrkS2": [
        "-0.004045",
        "_"
    ],
    "MatthiasCopemanC3": [
        "0.82187",
        "_"
    ],
    "SolidHeatCapacityCp": [
        {
            "eqno": "100",
            "A": "3861.3",
            "B": "1005.9",
            "C": "-1.0592",
            "D": "0.0042173",
            "E": "-0.0000083422",
            "Tmin": "10",
            "Tmax": "165.79"
        },
        "J/kmol/K"
    ],
    "UniquacQP": [
        "4.936",
        "_"
    ],
    "ApiSrkS1": [
        "0.745244",
        "_"
    ]
}