{
    "CAS": "562-49-2",
    "LibraryIndex": "24",
    "CompoundID": "3,3-dimethylpentane",
    "StructureFormula": "CH3CH2C(CH3)2CH2CH3",
    "Family": "4",
    "CriticalTemperature": [
        "536.3",
        "K"
    ],
    "CriticalPressure": [
        "2950000",
        "Pa"
    ],
    "CriticalVolume": [
        "0.4141",
        "m3/kmol"
    ],
    "CriticalCompressibility": [
        "0.274",
        "_"
    ],
    "NormalBoilingPointTemperature": [
        "359.19",
        "K"
    ],
    "NormalMeltingPointTemperature": [
        "138.7",
        "K"
    ],
    "TriplePointTemperature": [
        "138.7",
        "K"
    ],
    "TriplePointPressure": [
        "0.000229687",
        "Pa"
    ],
    "MolecularWeight": [
        "100.204",
        "kg/kmol"
    ],
    "LiquidVolumeAtNormalBoilingPoint": [
        "0.1454",
        "m3/kmol"
    ],
    "AcentricityFactor": [
        "0.269",
        "_"
    ],
    "SolubilityParameter": [
        "14530",
        "J0.5/m1.5"
    ],
    "DipoleMoment": [
        "0",
        "Coulomb.m"
    ],
    "HeatOfFormation": [
        "-2.0146E+08",
        "J/kmol"
    ],
    "GibbsEnergyOfFormation": [
        "2719600",
        "J/kmol"
    ],
    "AbsEntropy": [
        "398150",
        "J/kmol/K"
    ],
    "HeatOfFusionAtMeltingPoint": [
        "7066780",
        "J/kmol"
    ],
    "HeatOfCombustion": [
        "-4.45458E+09",
        "J/kmol"
    ],
    "LiquidDensity": [
        {
            "eqno": "105",
            "A": "0.57981",
            "B": "0.25238",
            "C": "536.41",
            "D": "0.28345",
            "Tmin": "138.7",
            "Tmax": "536.4"
        },
        "kmol/m3"
    ],
    "VaporPressure": [
        {
            "eqno": "101",
            "A": "74.58125",
            "B": "-6059.883",
            "C": "-7.986446",
            "D": "6.250113E-06",
            "E": "2",
            "Tmin": "138.7",
            "Tmax": "536.4"
        },
        "Pa"
    ],
    "HeatOfVaporization": [
        {
            "eqno": "106",
            "A": "5.254E+07",
            "B": "1.1834",
            "C": "-1.8011",
            "D": "1.5275",
            "E": "-0.48856",
            "Tmin": "138.7",
            "Tmax": "515.47"
        },
        "J/kmol"
    ],
    "LiquidHeatCapacityCp": [
        {
            "eqno": "16",
            "A": "122500",
            "B": "86.779",
            "C": "8.7861",
            "D": "0.0099608",
            "E": "-0.0000069264",
            "Tmin": "138.7",
            "Tmax": "370"
        },
        "J/kmol/K"
    ],
    "IdealGasHeatCapacityCp": [
        {
            "eqno": "16",
            "A": "67595",
            "B": "-428.94",
            "C": "12.79",
            "D": "0.00052141",
            "E": "-1.6453E-07",
            "Tmin": "200",
            "Tmax": "1500"
        },
        "J/kmol/K"
    ],
    "SecondVirialCoefficient": [
        {
            "eqno": "104",
            "A": "0.23671",
            "B": "-275.05",
            "C": "-39.954",
            "D": "-5103.8",
            "E": "7728.1",
            "Tmin": "268.2",
            "Tmax": "2000"
        },
        "m3/kmol"
    ],
    "LiquidViscosity": [
        {
            "eqno": "101",
            "A": "-7.1051",
            "B": "998.94",
            "C": "-0.73694",
            "D": "0.0000026961",
            "E": "2",
            "Tmin": "138.7",
            "Tmax": "359.21"
        },
        "Pa.s"
    ],
    "VaporViscosity": [
        {
            "eqno": "102",
            "A": "9.3561E-07",
            "B": "0.48169",
            "C": "385.32",
            "D": "9.0702",
            "Tmin": "359.21",
            "Tmax": "1000"
        },
        "Pa.s"
    ],
    "LiquidThermalConductivity": [
        {
            "eqno": "16",
            "A": "-0.050708",
            "B": "3.465",
            "C": "-1.5874",
            "D": "-0.00046821",
            "E": "-0.000001622",
            "Tmin": "138.7",
            "Tmax": "359.21"
        },
        "W/m/K"
    ],
    "VaporThermalConductivity": [
        {
            "eqno": "102",
            "A": "0.000069501",
            "B": "1.0643",
            "C": "-68.32",
            "D": "160740",
            "Tmin": "359.21",
            "Tmax": "1000"
        },
        "W/m/K"
    ],
    "RPPHeatCapacityCp": [
        {
            "eqno": "100",
            "A": "-3990.9",
            "B": "610.41",
            "C": "-0.061527",
            "D": "-0.00029616",
            "E": "1.5149E-07",
            "Tmin": "200",
            "Tmax": "1000"
        },
        "J/kmol/K"
    ],
    "RelativeStaticPermittivity": [
        {
            "eqno": "120",
            "A": "-1.404923",
            "B": "-950",
            "C": "-5.7",
            "Tmin": "274.15",
            "Tmax": "444.15"
        },
        "_"
    ],
    "AntoineVaporPressure": [
        {
            "eqno": "10",
            "A": "20.798",
            "B": "2942.1",
            "C": "-41.889",
            "Tmin": "325.25",
            "Tmax": "477.89"
        },
        "Pa"
    ],
    "LiquidViscosityRPS": [
        {
            "eqno": "12",
            "A": "-1.473",
            "B": "-0.020618",
            "Tmin": "138.7",
            "Tmax": "359.21"
        },
        "Pa.s"
    ],
    "COSTALDVolume": [
        "0.425834",
        "m3/kmol"
    ],
    "DiameterLJ": [
        "6.576266E-10",
        "m"
    ],
    "EnergyLJ": [
        "331.3011",
        "K"
    ],
    "RacketParameter": [
        "0.274",
        "_"
    ],
    "FullerVolume": [
        "148.26",
        "_"
    ],
    "Parachor": [
        "0.0543081",
        "kg0.25.m3/s0.5/kmol"
    ],
    "SpecificGravity": [
        "0.696441",
        "_"
    ],
    "Charge": [
        "0",
        "_"
    ],
    "CostaldAcentricFactor": [
        "0.269",
        "_"
    ],
    "WilsonVolume": [
        "0.1454",
        "m3/kmol"
    ],
    "ChaoSeaderAcentricFactor": [
        "0.269",
        "_"
    ],
    "ChaoSeaderSolubilityParameter": [
        "14530",
        "J0.5/m1.5"
    ],
    "ChaoSeaderLiquidVolume": [
        "0.1454",
        "m3/kmol"
    ],
    "RadiusOfGyration": [
        "3.768E-10",
        "m"
    ],
    "VanDerWaalsVolume": [
        "0.07847",
        "m3/kmol"
    ],
    "VanDerWaalsArea": [
        "1.118E+09",
        "m2/kmol"
    ],
    "MatthiasCopemanC1": [
        "0.93732",
        "_"
    ],
    "SolidDensity": [
        {
            "eqno": "2",
            "A": "10.356",
            "B": "-0.0082936",
            "C": "0",
            "D": "0",
            "E": "0",
            "Tmin": "55.48",
            "Tmax": "138.7"
        },
        "kmol/m3"
    ],
    "SurfaceTension": [
        {
            "eqno": "16",
            "A": "-0.012361",
            "B": "17.687",
            "C": "-3.0268",
            "D": "-0.00037187",
            "E": "-0.0000042897",
            "Tmin": "138.7",
            "Tmax": "515.47"
        },
        "N/m"
    ],
    "MatthiasCopemanC2": [
        "-0.41501",
        "_"
    ],
    "UniquacR": [
        "5.1727",
        "_"
    ],
    "UniquacQ": [
        "4.472",
        "_"
    ],
    "ApiSrkS2": [
        "-0.004779",
        "_"
    ],
    "MatthiasCopemanC3": [
        "0.77243",
        "_"
    ],
    "SolidHeatCapacityCp": [
        {
            "eqno": "100",
            "A": "-10707",
            "B": "1309.2",
            "C": "-1.4394",
            "D": "-0.047767",
            "E": "0.00027764",
            "Tmin": "20",
            "Tmax": "138.75"
        },
        "J/kmol/K"
    ],
    "UniquacQP": [
        "4.936",
        "_"
    ],
    "ApiSrkS1": [
        "0.59245",
        "_"
    ]
}