{
    "CAS": "563-45-1",
    "LibraryIndex": "213",
    "CompoundID": "3-methyl-1-butene",
    "StructureFormula": "CH2CHCH(CH3)CH3",
    "Family": "11",
    "CriticalTemperature": [
        "452.7",
        "K"
    ],
    "CriticalPressure": [
        "3550000",
        "Pa"
    ],
    "CriticalVolume": [
        "0.3049",
        "m3/kmol"
    ],
    "CriticalCompressibility": [
        "0.288",
        "_"
    ],
    "NormalBoilingPointTemperature": [
        "293.21",
        "K"
    ],
    "NormalMeltingPointTemperature": [
        "104.66",
        "K"
    ],
    "TriplePointTemperature": [
        "104.66",
        "K"
    ],
    "TriplePointPressure": [
        "0.0000144678",
        "Pa"
    ],
    "MolecularWeight": [
        "70.134",
        "kg/kmol"
    ],
    "LiquidVolumeAtNormalBoilingPoint": [
        "0.11277",
        "m3/kmol"
    ],
    "AcentricityFactor": [
        "0.211",
        "_"
    ],
    "SolubilityParameter": [
        "13780",
        "J0.5/m1.5"
    ],
    "DipoleMoment": [
        "1.07E-30",
        "Coulomb.m"
    ],
    "HeatOfFormation": [
        "-2.76E+07",
        "J/kmol"
    ],
    "GibbsEnergyOfFormation": [
        "7.605E+07",
        "J/kmol"
    ],
    "AbsEntropy": [
        "333900",
        "J/kmol/K"
    ],
    "HeatOfFusionAtMeltingPoint": [
        "5359700",
        "J/kmol"
    ],
    "HeatOfCombustion": [
        "-3.1253E+09",
        "J/kmol"
    ],
    "LiquidDensity": [
        {
            "eqno": "105",
            "A": "0.85968",
            "B": "0.26229",
            "C": "452.7",
            "D": "0.27579",
            "Tmin": "104.66",
            "Tmax": "434.38"
        },
        "kmol/m3"
    ],
    "VaporPressure": [
        {
            "eqno": "101",
            "A": "74.66163",
            "B": "-4956.256",
            "C": "-8.290047",
            "D": "0.0000100425",
            "E": "2",
            "Tmin": "104.66",
            "Tmax": "452.7"
        },
        "Pa"
    ],
    "HeatOfVaporization": [
        {
            "eqno": "106",
            "A": "3.9174E+07",
            "B": "0.58094",
            "C": "0.12579",
            "D": "-0.78785",
            "E": "0.49354",
            "Tmin": "104.66",
            "Tmax": "434.38"
        },
        "J/kmol"
    ],
    "LiquidHeatCapacityCp": [
        {
            "eqno": "16",
            "A": "94996",
            "B": "92.422",
            "C": "8.4061",
            "D": "0.009093",
            "E": "-0.0000045826",
            "Tmin": "103.08",
            "Tmax": "300"
        },
        "J/kmol/K"
    ],
    "IdealGasHeatCapacityCp": [
        {
            "eqno": "16",
            "A": "82557",
            "B": "-671.08",
            "C": "12.784",
            "D": "-0.00012458",
            "E": "4.234E-08",
            "Tmin": "200",
            "Tmax": "1500"
        },
        "J/kmol/K"
    ],
    "SecondVirialCoefficient": [
        {
            "eqno": "104",
            "A": "0.17117",
            "B": "-168.7",
            "C": "-14.362",
            "D": "-474.16",
            "E": "518.37",
            "Tmin": "225",
            "Tmax": "1841"
        },
        "m3/kmol"
    ],
    "LiquidViscosity": [
        {
            "eqno": "101",
            "A": "-11.214",
            "B": "821.55",
            "C": "-0.010133",
            "D": "9.4673E-08",
            "E": "2",
            "Tmin": "104.66",
            "Tmax": "362.16"
        },
        "Pa.s"
    ],
    "VaporViscosity": [
        {
            "eqno": "102",
            "A": "0.0000016555",
            "B": "0.42535",
            "C": "455.3",
            "D": "876.91",
            "Tmin": "104.66",
            "Tmax": "1000"
        },
        "Pa.s"
    ],
    "LiquidThermalConductivity": [
        {
            "eqno": "16",
            "A": "-0.017622",
            "B": "5.9209",
            "C": "-1.694",
            "D": "-0.00045405",
            "E": "-0.0000033564",
            "Tmin": "104.66",
            "Tmax": "293.2"
        },
        "W/m/K"
    ],
    "VaporThermalConductivity": [
        {
            "eqno": "102",
            "A": "0.00014816",
            "B": "0.97375",
            "C": "75.281",
            "D": "116540",
            "Tmin": "293.21",
            "Tmax": "1000"
        },
        "W/m/K"
    ],
    "RPPHeatCapacityCp": [
        {
            "eqno": "100",
            "A": "17527",
            "B": "348.48",
            "C": "-0.034588",
            "D": "-0.00016105",
            "E": "7.932E-08",
            "Tmin": "298",
            "Tmax": "1000"
        },
        "J/kmol/K"
    ],
    "RelativeStaticPermittivity": [
        {
            "eqno": "120",
            "A": "-1.4825",
            "B": "-1000",
            "C": "-6",
            "Tmin": "154",
            "Tmax": "444.15"
        },
        "_"
    ],
    "AntoineVaporPressure": [
        {
            "eqno": "10",
            "A": "20.734",
            "B": "2400.8",
            "C": "-32.491",
            "Tmin": "273.15",
            "Tmax": "397.75"
        },
        "Pa"
    ],
    "LiquidViscosityRPS": [
        {
            "eqno": "13",
            "A": "1.3377",
            "B": "-0.058937",
            "C": "0.000086079",
            "Tmin": "104.66",
            "Tmax": "362.16"
        },
        "Pa.s"
    ],
    "COSTALDVolume": [
        "0.29398",
        "m3/kmol"
    ],
    "DiameterLJ": [
        "5.593622E-10",
        "m"
    ],
    "EnergyLJ": [
        "334.6082",
        "K"
    ],
    "RacketParameter": [
        "0.272045",
        "_"
    ],
    "FullerVolume": [
        "102.6",
        "_"
    ],
    "Parachor": [
        "0.0389",
        "kg0.25.m3/s0.5/kmol"
    ],
    "SpecificGravity": [
        "0.63127",
        "_"
    ],
    "Charge": [
        "0",
        "_"
    ],
    "CostaldAcentricFactor": [
        "0.2266",
        "_"
    ],
    "WilsonVolume": [
        "0.111819",
        "m3/kmol"
    ],
    "ChaoSeaderAcentricFactor": [
        "0.2285",
        "_"
    ],
    "ChaoSeaderSolubilityParameter": [
        "14010.2",
        "J0.5/m1.5"
    ],
    "ChaoSeaderLiquidVolume": [
        "0.111819",
        "m3/kmol"
    ],
    "RadiusOfGyration": [
        "3.272E-10",
        "m"
    ],
    "VanDerWaalsVolume": [
        "0.05453",
        "m3/kmol"
    ],
    "VanDerWaalsArea": [
        "7.75E+08",
        "m2/kmol"
    ],
    "MatthiasCopemanC1": [
        "0.82876",
        "_"
    ],
    "SolidDensity": [
        {
            "eqno": "2",
            "A": "14.464",
            "B": "-0.015739",
            "Tmin": "41.86",
            "Tmax": "104.66"
        },
        "kmol/m3"
    ],
    "SurfaceTension": [
        {
            "eqno": "16",
            "A": "-0.01585",
            "B": "5.8469",
            "C": "-2.8491",
            "D": "-0.0010934",
            "E": "-0.0000040903",
            "Tmin": "104.66",
            "Tmax": "434.38"
        },
        "N/m"
    ],
    "MatthiasCopemanC2": [
        "0",
        "_"
    ],
    "UniquacR": [
        "3.5945",
        "_"
    ],
    "UniquacQ": [
        "3.1",
        "_"
    ],
    "ApiSrkS2": [
        "-0.011281",
        "_"
    ],
    "MatthiasCopemanC3": [
        "0",
        "_"
    ],
    "SolidHeatCapacityCp": [
        {
            "eqno": "100",
            "A": "-31134",
            "B": "2580.1",
            "C": "-35.586",
            "D": "0.27843",
            "E": "-0.00080931",
            "Tmin": "29.5",
            "Tmax": "104.71"
        },
        "J/kmol/K"
    ],
    "UniquacQP": [
        "2.484",
        "_"
    ],
    "ApiSrkS1": [
        "0.745244",
        "_"
    ]
}