{
    "CAS": "584-94-1",
    "LibraryIndex": "33",
    "CompoundID": "2,3-dimethylhexane",
    "StructureFormula": "CH3CH(CH3)CH(CH3)CH2CH2CH3",
    "Family": "4",
    "CriticalTemperature": [
        "563.4",
        "K"
    ],
    "CriticalPressure": [
        "2630000",
        "Pa"
    ],
    "CriticalVolume": [
        "0.4682",
        "m3/kmol"
    ],
    "CriticalCompressibility": [
        "0.263",
        "_"
    ],
    "NormalBoilingPointTemperature": [
        "388.76",
        "K"
    ],
    "NormalMeltingPointTemperature": [
        "151.97",
        "K"
    ],
    "TriplePointTemperature": [
        "151.97",
        "K"
    ],
    "TriplePointPressure": [
        "0.000215228",
        "Pa"
    ],
    "MolecularWeight": [
        "114.231",
        "kg/kmol"
    ],
    "LiquidVolumeAtNormalBoilingPoint": [
        "0.16131",
        "m3/kmol"
    ],
    "AcentricityFactor": [
        "0.347",
        "_"
    ],
    "SolubilityParameter": [
        "15020",
        "J0.5/m1.5"
    ],
    "DipoleMoment": [
        "0",
        "Coulomb.m"
    ],
    "HeatOfFormation": [
        "-2.13886E+08",
        "J/kmol"
    ],
    "GibbsEnergyOfFormation": [
        "1.50206E+07",
        "J/kmol"
    ],
    "AbsEntropy": [
        "451960",
        "J/kmol/K"
    ],
    "HeatOfFusionAtMeltingPoint": [
        "0",
        "J/kmol"
    ],
    "HeatOfCombustion": [
        "-5.07176E+09",
        "J/kmol"
    ],
    "LiquidDensity": [
        {
            "eqno": "105",
            "A": "0.48655",
            "B": "0.24924",
            "C": "563.43",
            "D": "0.24533",
            "Tmin": "272.04",
            "Tmax": "563.42"
        },
        "kmol/m3"
    ],
    "VaporPressure": [
        {
            "eqno": "101",
            "A": "106.31",
            "B": "-8083.9",
            "C": "-12.636",
            "D": "0.000008991",
            "E": "2",
            "Tmin": "272.04",
            "Tmax": "563.5"
        },
        "Pa"
    ],
    "HeatOfVaporization": [
        {
            "eqno": "106",
            "A": "5.5877E+07",
            "B": "0.44475",
            "C": "0.4503",
            "D": "-0.98905",
            "E": "0.49662",
            "Tmin": "272.04",
            "Tmax": "548.16"
        },
        "J/kmol"
    ],
    "LiquidHeatCapacityCp": [
        {
            "eqno": "16",
            "A": "-256410",
            "B": "53.354",
            "C": "11.988",
            "D": "0.00458",
            "E": "-0.0000045457",
            "Tmin": "138.5",
            "Tmax": "388.76"
        },
        "J/kmol/K"
    ],
    "IdealGasHeatCapacityCp": [
        {
            "eqno": "16",
            "A": "55247",
            "B": "-379.2",
            "C": "12.913",
            "D": "0.00048944",
            "E": "-1.5722E-07",
            "Tmin": "200",
            "Tmax": "1500"
        },
        "J/kmol/K"
    ],
    "SecondVirialCoefficient": [
        {
            "eqno": "104",
            "A": "0.27351",
            "B": "-363.66",
            "C": "-49.524",
            "D": "-11049",
            "E": "21772",
            "Tmin": "281.7",
            "Tmax": "1799.7"
        },
        "m3/kmol"
    ],
    "LiquidViscosity": [
        {
            "eqno": "101",
            "A": "8.0389",
            "B": "480.9",
            "C": "-3.1555",
            "D": "0.0000074225",
            "E": "2",
            "Tmin": "272.04",
            "Tmax": "388.76"
        },
        "Pa.s"
    ],
    "VaporViscosity": [
        {
            "eqno": "102",
            "A": "4.4497E-07",
            "B": "0.56168",
            "C": "244.71",
            "D": "41.585",
            "Tmin": "388.76",
            "Tmax": "1000"
        },
        "Pa.s"
    ],
    "LiquidThermalConductivity": [
        {
            "eqno": "16",
            "A": "-0.0041864",
            "B": "-133.36",
            "C": "-0.65326",
            "D": "-0.003975",
            "E": "8.3867E-07",
            "Tmin": "272.04",
            "Tmax": "388.76"
        },
        "W/m/K"
    ],
    "VaporThermalConductivity": [
        {
            "eqno": "102",
            "A": "0.000025619",
            "B": "1.1862",
            "C": "-177.9",
            "D": "153600",
            "Tmin": "388.76",
            "Tmax": "1000"
        },
        "W/m/K"
    ],
    "RPPHeatCapacityCp": [
        {
            "eqno": "100",
            "A": "-29882",
            "B": "839.62",
            "C": "-0.40575",
            "D": "-0.000028435",
            "E": "6.5601E-08",
            "Tmin": "200",
            "Tmax": "1000"
        },
        "J/kmol/K"
    ],
    "RelativeStaticPermittivity": [
        {
            "eqno": "120",
            "A": "-1.796538",
            "B": "-1200",
            "C": "-7.2",
            "Tmin": "274.15",
            "Tmax": "444.15"
        },
        "_"
    ],
    "AntoineVaporPressure": [
        {
            "eqno": "10",
            "A": "21.01",
            "B": "3204.6",
            "C": "-50.852",
            "Tmin": "272.04",
            "Tmax": "563.5"
        },
        "Pa"
    ],
    "LiquidViscosityRPS": [
        {
            "eqno": "12",
            "A": "-4.8925",
            "B": "-0.0092431",
            "Tmin": "272.04",
            "Tmax": "388.76"
        },
        "Pa.s"
    ],
    "COSTALDVolume": [
        "0.486848",
        "m3/kmol"
    ],
    "DiameterLJ": [
        "7.196288E-10",
        "m"
    ],
    "EnergyLJ": [
        "300.3107",
        "K"
    ],
    "RacketParameter": [
        "0.263",
        "_"
    ],
    "FullerVolume": [
        "168.78",
        "_"
    ],
    "Parachor": [
        "0.0607317",
        "kg0.25.m3/s0.5/kmol"
    ],
    "SpecificGravity": [
        "0.715524",
        "_"
    ],
    "Charge": [
        "0",
        "_"
    ],
    "CostaldAcentricFactor": [
        "0.347",
        "_"
    ],
    "WilsonVolume": [
        "0.16131",
        "m3/kmol"
    ],
    "ChaoSeaderAcentricFactor": [
        "0.347",
        "_"
    ],
    "ChaoSeaderSolubilityParameter": [
        "15020",
        "J0.5/m1.5"
    ],
    "ChaoSeaderLiquidVolume": [
        "0.16131",
        "m3/kmol"
    ],
    "RadiusOfGyration": [
        "4.363E-10",
        "m"
    ],
    "VanDerWaalsVolume": [
        "0.0886999",
        "m3/kmol"
    ],
    "VanDerWaalsArea": [
        "1.232E+09",
        "m2/kmol"
    ],
    "MatthiasCopemanC1": [
        "1.0586",
        "_"
    ],
    "SolidDensity": [
        {
            "eqno": "2",
            "A": "7.46",
            "B": "-2.5002E-16",
            "C": "0",
            "D": "0",
            "E": "0",
            "Tmin": "0",
            "Tmax": "9.5"
        },
        "kmol/m3"
    ],
    "SurfaceTension": [
        {
            "eqno": "106",
            "A": "0.05024",
            "B": "1.1882",
            "C": "0",
            "D": "0",
            "E": "0",
            "Tmin": "0",
            "Tmax": "563.5"
        },
        "N/m"
    ],
    "MatthiasCopemanC2": [
        "-0.50585",
        "_"
    ],
    "UniquacR": [
        "5.847",
        "_"
    ],
    "UniquacQ": [
        "4.928",
        "_"
    ],
    "ApiSrkS2": [
        "-0.002424",
        "_"
    ],
    "MatthiasCopemanC3": [
        "1.0396",
        "_"
    ],
    "SolidHeatCapacityCp": [
        {
            "eqno": "1",
            "A": "223200",
            "Tmin": "0",
            "Tmax": "563.4"
        },
        "J/kmol/K"
    ],
    "UniquacQP": [
        "4.936",
        "_"
    ],
    "ApiSrkS1": [
        "0.59245",
        "_"
    ]
}