{
    "CAS": "591-78-6",
    "LibraryIndex": "1062",
    "CompoundID": "2-hexanone",
    "StructureFormula": "CH3COCH2CH2CH2CH3",
    "Family": "26",
    "CriticalTemperature": [
        "587",
        "K"
    ],
    "CriticalPressure": [
        "3320000",
        "Pa"
    ],
    "CriticalVolume": [
        "0.378",
        "m3/kmol"
    ],
    "CriticalCompressibility": [
        "0.254",
        "_"
    ],
    "NormalBoilingPointTemperature": [
        "400.7",
        "K"
    ],
    "NormalMeltingPointTemperature": [
        "217.35",
        "K"
    ],
    "TriplePointTemperature": [
        "217.35",
        "K"
    ],
    "TriplePointPressure": [
        "1.44559",
        "Pa"
    ],
    "MolecularWeight": [
        "100.161",
        "kg/kmol"
    ],
    "LiquidVolumeAtNormalBoilingPoint": [
        "0.1241",
        "m3/kmol"
    ],
    "AcentricityFactor": [
        "0.393",
        "_"
    ],
    "SolubilityParameter": [
        "17600",
        "J0.5/m1.5"
    ],
    "DipoleMoment": [
        "8.94E-30",
        "Coulomb.m"
    ],
    "HeatOfFormation": [
        "-2.79826E+08",
        "J/kmol"
    ],
    "GibbsEnergyOfFormation": [
        "-1.30081E+08",
        "J/kmol"
    ],
    "AbsEntropy": [
        "417856",
        "J/kmol/K"
    ],
    "HeatOfFusionAtMeltingPoint": [
        "1.49E+07",
        "J/kmol"
    ],
    "HeatOfCombustion": [
        "-3.49E+09",
        "J/kmol"
    ],
    "LiquidDensity": [
        {
            "eqno": "105",
            "A": "0.58528",
            "B": "0.23872",
            "C": "587.62",
            "D": "0.26191",
            "Tmin": "217.35",
            "Tmax": "587.61"
        },
        "kmol/m3"
    ],
    "VaporPressure": [
        {
            "eqno": "101",
            "A": "81.22606",
            "B": "-7467.987",
            "C": "-8.650385",
            "D": "4.736711E-06",
            "E": "2",
            "Tmin": "217.35",
            "Tmax": "587.61"
        },
        "Pa"
    ],
    "HeatOfVaporization": [
        {
            "eqno": "106",
            "A": "8.140665E+07",
            "B": "1.724728",
            "C": "-1.991428",
            "D": "0.65901",
            "E": "0.10235",
            "Tmin": "217.35",
            "Tmax": "568.12"
        },
        "J/kmol"
    ],
    "LiquidHeatCapacityCp": [
        {
            "eqno": "16",
            "A": "171430",
            "B": "304.46",
            "C": "6.7554",
            "D": "0.010928",
            "E": "-0.0000044198",
            "Tmin": "217.35",
            "Tmax": "460"
        },
        "J/kmol/K"
    ],
    "IdealGasHeatCapacityCp": [
        {
            "eqno": "16",
            "A": "101950",
            "B": "-647",
            "C": "12.874",
            "D": "0.00017699",
            "E": "-1.3836E-07",
            "Tmin": "200",
            "Tmax": "1200"
        },
        "J/kmol/K"
    ],
    "SecondVirialCoefficient": [
        {
            "eqno": "104",
            "A": "0.24744",
            "B": "-284.68",
            "C": "-57.772",
            "D": "-30750",
            "E": "48339",
            "Tmin": "293.8",
            "Tmax": "1877.53"
        },
        "m3/kmol"
    ],
    "LiquidViscosity": [
        {
            "eqno": "101",
            "A": "-9.5407",
            "B": "1129.1",
            "C": "-0.30673",
            "D": "6.1273E-07",
            "E": "2",
            "Tmin": "217.35",
            "Tmax": "400.7"
        },
        "Pa.s"
    ],
    "VaporViscosity": [
        {
            "eqno": "102",
            "A": "1.7562E-07",
            "B": "0.7037",
            "C": "196.23",
            "D": "-7085.8",
            "Tmin": "217.35",
            "Tmax": "1000"
        },
        "Pa.s"
    ],
    "LiquidThermalConductivity": [
        {
            "eqno": "16",
            "A": "-0.0056603",
            "B": "-27.398",
            "C": "-1.2811",
            "D": "-0.0017572",
            "E": "-3.9285E-07",
            "Tmin": "217.35",
            "Tmax": "400.85"
        },
        "W/m/K"
    ],
    "VaporThermalConductivity": [
        {
            "eqno": "102",
            "A": "-0.96934",
            "B": "0.03859",
            "C": "-1883.3",
            "D": "-1.1142E+07",
            "Tmin": "273",
            "Tmax": "1000"
        },
        "W/m/K"
    ],
    "RPPHeatCapacityCp": [
        {
            "eqno": "100",
            "A": "76044",
            "B": "72.344",
            "C": "0.89264",
            "D": "-0.0012053",
            "E": "4.7958E-07",
            "Tmin": "200",
            "Tmax": "1000"
        },
        "J/kmol/K"
    ],
    "RelativeStaticPermittivity": [
        {
            "eqno": "120",
            "A": "-15.27517",
            "B": "-7300",
            "C": "-43.8",
            "Tmin": "269.15",
            "Tmax": "439.15"
        },
        "_"
    ],
    "AntoineVaporPressure": [
        {
            "eqno": "10",
            "A": "21.044",
            "B": "3173.6",
            "C": "-67.224",
            "Tmin": "353.76",
            "Tmax": "525"
        },
        "Pa"
    ],
    "LiquidViscosityRPS": [
        {
            "eqno": "12",
            "A": "-3.3896",
            "B": "-0.013212",
            "Tmin": "217.35",
            "Tmax": "400.7"
        },
        "Pa.s"
    ],
    "COSTALDVolume": [
        "0.375336",
        "m3/kmol"
    ],
    "DiameterLJ": [
        "6.986748E-10",
        "m"
    ],
    "EnergyLJ": [
        "276.0277",
        "K"
    ],
    "RacketParameter": [
        "0.254",
        "_"
    ],
    "FullerVolume": [
        "129.23",
        "_"
    ],
    "Parachor": [
        "0.0492648",
        "kg0.25.m3/s0.5/kmol"
    ],
    "SpecificGravity": [
        "0.81617",
        "_"
    ],
    "Charge": [
        "0",
        "_"
    ],
    "CostaldAcentricFactor": [
        "0.393",
        "_"
    ],
    "WilsonVolume": [
        "0.1241",
        "m3/kmol"
    ],
    "ChaoSeaderAcentricFactor": [
        "0.393",
        "_"
    ],
    "ChaoSeaderSolubilityParameter": [
        "17600",
        "J0.5/m1.5"
    ],
    "ChaoSeaderLiquidVolume": [
        "0.1241",
        "m3/kmol"
    ],
    "RadiusOfGyration": [
        "4.093E-10",
        "m"
    ],
    "VanDerWaalsVolume": [
        "0.06973",
        "m3/kmol"
    ],
    "VanDerWaalsArea": [
        "9.89E+08",
        "m2/kmol"
    ],
    "MatthiasCopemanC1": [
        "1.06376",
        "_"
    ],
    "SolidDensity": [
        {
            "eqno": "2",
            "A": "11.083",
            "B": "-0.0056905",
            "C": "0",
            "D": "0",
            "E": "0",
            "Tmin": "86.94",
            "Tmax": "217.35"
        },
        "kmol/m3"
    ],
    "SurfaceTension": [
        {
            "eqno": "16",
            "A": "-0.0081399",
            "B": "117.23",
            "C": "-3.9614",
            "D": "0.003099",
            "E": "-0.0000084515",
            "Tmin": "217.35",
            "Tmax": "568.12"
        },
        "N/m"
    ],
    "MatthiasCopemanC2": [
        "0",
        "_"
    ],
    "UniquacR": [
        "4.5967",
        "_"
    ],
    "UniquacQ": [
        "3.956",
        "_"
    ],
    "ApiSrkS2": [
        "0.022869",
        "_"
    ],
    "MatthiasCopemanC3": [
        "0",
        "_"
    ],
    "SolidHeatCapacityCp": [
        {
            "eqno": "100",
            "A": "5223.7",
            "B": "839.15",
            "C": "4.7323",
            "D": "-0.068211",
            "E": "0.00021333",
            "Tmin": "39.76",
            "Tmax": "217.69"
        },
        "J/kmol/K"
    ],
    "UniquacQP": [
        "4.936",
        "_"
    ],
    "ApiSrkS1": [
        "0.59245",
        "_"
    ]
}