{
    "CAS": "5911-04-6",
    "LibraryIndex": "85",
    "CompoundID": "3-methylnonane",
    "StructureFormula": "CH3CH2CH(CH3)(CH2)5CH3",
    "Family": "2",
    "CriticalTemperature": [
        "613.7",
        "K"
    ],
    "CriticalPressure": [
        "2140000",
        "Pa"
    ],
    "CriticalVolume": [
        "0.5904",
        "m3/kmol"
    ],
    "CriticalCompressibility": [
        "0.247",
        "_"
    ],
    "NormalBoilingPointTemperature": [
        "440.95",
        "K"
    ],
    "NormalMeltingPointTemperature": [
        "188.35",
        "K"
    ],
    "TriplePointTemperature": [
        "188.35",
        "K"
    ],
    "TriplePointPressure": [
        "0.000565366",
        "Pa"
    ],
    "MolecularWeight": [
        "142.282",
        "kg/kmol"
    ],
    "LiquidVolumeAtNormalBoilingPoint": [
        "0.195076",
        "m3/kmol"
    ],
    "AcentricityFactor": [
        "0.464925",
        "_"
    ],
    "SolubilityParameter": [
        "15470",
        "J0.5/m1.5"
    ],
    "DipoleMoment": [
        "0",
        "Coulomb.m"
    ],
    "HeatOfFormation": [
        "-2.544E+08",
        "J/kmol"
    ],
    "GibbsEnergyOfFormation": [
        "2.88E+07",
        "J/kmol"
    ],
    "AbsEntropy": [
        "543900",
        "J/kmol/K"
    ],
    "HeatOfFusionAtMeltingPoint": [
        "1.88E+07",
        "J/kmol"
    ],
    "HeatOfCombustion": [
        "-6.291E+09",
        "J/kmol"
    ],
    "LiquidDensity": [
        {
            "eqno": "105",
            "A": "0.19012",
            "B": "0.17319",
            "C": "613.7",
            "D": "0.19349",
            "Tmin": "188.35",
            "Tmax": "613"
        },
        "kmol/m3"
    ],
    "VaporPressure": [
        {
            "eqno": "101",
            "A": "90.738",
            "B": "-8476.8",
            "C": "-10.023",
            "D": "0.0000053448",
            "E": "2",
            "Tmin": "188.35",
            "Tmax": "613"
        },
        "Pa"
    ],
    "HeatOfVaporization": [
        {
            "eqno": "106",
            "A": "8.354164E+07",
            "B": "1.024481",
            "C": "-0.0908156",
            "D": "-1.228122",
            "E": "0.762381",
            "Tmin": "188.35",
            "Tmax": "613"
        },
        "J/kmol"
    ],
    "LiquidHeatCapacityCp": [
        {
            "eqno": "16",
            "A": "78506",
            "B": "74.892",
            "C": "11.023",
            "D": "0.0040568",
            "E": "-0.0000015927",
            "Tmin": "188.35",
            "Tmax": "580"
        },
        "J/kmol/K"
    ],
    "IdealGasHeatCapacityCp": [
        {
            "eqno": "16",
            "A": "133050",
            "B": "-599.42",
            "C": "13.53",
            "D": "-0.000017353",
            "E": "-3.363E-09",
            "Tmin": "150",
            "Tmax": "1500"
        },
        "J/kmol/K"
    ],
    "SecondVirialCoefficient": [
        {
            "eqno": "104",
            "A": "0.33234",
            "B": "-422.27",
            "C": "-103.89",
            "D": "-20755",
            "E": "19060",
            "Tmin": "306.5",
            "Tmax": "1500"
        },
        "m3/kmol"
    ],
    "LiquidViscosity": [
        {
            "eqno": "101",
            "A": "-12.922",
            "B": "1267.3",
            "C": "0.28159",
            "D": "-8.3807E-07",
            "E": "2",
            "Tmin": "188.35",
            "Tmax": "440.95"
        },
        "Pa.s"
    ],
    "VaporViscosity": [
        {
            "eqno": "102",
            "A": "6.1879E-07",
            "B": "0.49638",
            "C": "289.26",
            "D": "-877.62",
            "Tmin": "188.35",
            "Tmax": "1000"
        },
        "Pa.s"
    ],
    "LiquidThermalConductivity": [
        {
            "eqno": "16",
            "A": "-0.1781",
            "B": "10.557",
            "C": "-1.078",
            "D": "-0.00023148",
            "E": "-6.8221E-07",
            "Tmin": "188.35",
            "Tmax": "490"
        },
        "W/m/K"
    ],
    "VaporThermalConductivity": [
        {
            "eqno": "102",
            "A": "0.000033407",
            "B": "1.1338",
            "C": "-162.76",
            "D": "171650",
            "Tmin": "440.95",
            "Tmax": "1000"
        },
        "W/m/K"
    ],
    "RPPHeatCapacityCp": [
        {
            "eqno": "4",
            "A": "6363.2",
            "B": "899.08",
            "C": "-0.44378",
            "D": "0.000077366",
            "Tmin": "150",
            "Tmax": "1500"
        },
        "J/kmol/K"
    ],
    "RelativeStaticPermittivity": [
        {
            "eqno": "120",
            "A": "-1.404923",
            "B": "-950",
            "C": "-5.7",
            "Tmin": "274.15",
            "Tmax": "444.15"
        },
        "_"
    ],
    "AntoineVaporPressure": [
        {
            "eqno": "10",
            "A": "21.006",
            "B": "3498.3",
            "C": "-71.962",
            "Tmin": "370.15",
            "Tmax": "545.95"
        },
        "Pa"
    ],
    "LiquidViscosityRPS": [
        {
            "eqno": "12",
            "A": "-2.7344",
            "B": "-0.013957",
            "Tmin": "188.35",
            "Tmax": "440.95"
        },
        "Pa.s"
    ],
    "COSTALDVolume": [
        "0.616046",
        "m3/kmol"
    ],
    "DiameterLJ": [
        "8.382832E-10",
        "m"
    ],
    "EnergyLJ": [
        "260.9626",
        "K"
    ],
    "RacketParameter": [
        "0.247",
        "_"
    ],
    "FullerVolume": [
        "209.82",
        "_"
    ],
    "Parachor": [
        "0.0754856",
        "kg0.25.m3/s0.5/kmol"
    ],
    "SpecificGravity": [
        "0.736955",
        "_"
    ],
    "Charge": [
        "0",
        "_"
    ],
    "CostaldAcentricFactor": [
        "0.464925",
        "_"
    ],
    "WilsonVolume": [
        "0.195076",
        "m3/kmol"
    ],
    "ChaoSeaderAcentricFactor": [
        "0.464925",
        "_"
    ],
    "ChaoSeaderSolubilityParameter": [
        "15470",
        "J0.5/m1.5"
    ],
    "ChaoSeaderLiquidVolume": [
        "0.195076",
        "m3/kmol"
    ],
    "RadiusOfGyration": [
        "5.286E-10",
        "m"
    ],
    "VanDerWaalsVolume": [
        "0.10917",
        "m3/kmol"
    ],
    "VanDerWaalsArea": [
        "1.503E+09",
        "m2/kmol"
    ],
    "MatthiasCopemanC1": [
        "1.15253",
        "_"
    ],
    "SolidDensity": [
        {
            "eqno": "2",
            "A": "7.1736",
            "B": "-0.0042229",
            "C": "0",
            "D": "0",
            "E": "0",
            "Tmin": "75.34",
            "Tmax": "188.35"
        },
        "kmol/m3"
    ],
    "SurfaceTension": [
        {
            "eqno": "16",
            "A": "-0.01117",
            "B": "45.677",
            "C": "-3.2566",
            "D": "0.00030403",
            "E": "-0.0000040378",
            "Tmin": "188.35",
            "Tmax": "613"
        },
        "N/m"
    ],
    "MatthiasCopemanC2": [
        "0",
        "_"
    ],
    "UniquacR": [
        "7.196599",
        "_"
    ],
    "UniquacQ": [
        "6.012",
        "_"
    ],
    "ApiSrkS2": [
        "-0.005733",
        "_"
    ],
    "MatthiasCopemanC3": [
        "0",
        "_"
    ],
    "SolidHeatCapacityCp": [
        {
            "eqno": "100",
            "A": "622690",
            "B": "-20288",
            "C": "276.93",
            "D": "-1.5699",
            "E": "0.0032518",
            "Tmin": "80",
            "Tmax": "180"
        },
        "J/kmol/K"
    ],
    "UniquacQP": [
        "4.936",
        "_"
    ],
    "ApiSrkS1": [
        "0.59245",
        "_"
    ]
}