{
    "CAS": "6032-29-7",
    "LibraryIndex": "1110",
    "CompoundID": "2-pentanol",
    "StructureFormula": "CH3(CH2)2CH(OH)CH3",
    "Family": "46",
    "CriticalTemperature": [
        "552",
        "K"
    ],
    "CriticalPressure": [
        "3880000",
        "Pa"
    ],
    "CriticalVolume": [
        "0.327",
        "m3/kmol"
    ],
    "CriticalCompressibility": [
        "0.26",
        "_"
    ],
    "NormalBoilingPointTemperature": [
        "392.15",
        "K"
    ],
    "NormalMeltingPointTemperature": [
        "200",
        "K"
    ],
    "TriplePointTemperature": [
        "200",
        "K"
    ],
    "TriplePointPressure": [
        "0.00596587",
        "Pa"
    ],
    "MolecularWeight": [
        "88.1482",
        "kg/kmol"
    ],
    "LiquidVolumeAtNormalBoilingPoint": [
        "0.109448",
        "m3/kmol"
    ],
    "AcentricityFactor": [
        "0.674371",
        "_"
    ],
    "SolubilityParameter": [
        "21700",
        "J0.5/m1.5"
    ],
    "DipoleMoment": [
        "5.39E-30",
        "Coulomb.m"
    ],
    "HeatOfFormation": [
        "-3.138E+08",
        "J/kmol"
    ],
    "GibbsEnergyOfFormation": [
        "-1.593E+08",
        "J/kmol"
    ],
    "AbsEntropy": [
        "396400",
        "J/kmol/K"
    ],
    "HeatOfFusionAtMeltingPoint": [
        "8480000",
        "J/kmol"
    ],
    "HeatOfCombustion": [
        "-3.0515E+09",
        "J/kmol"
    ],
    "LiquidDensity": [
        {
            "eqno": "105",
            "A": "1.319",
            "B": "0.3371",
            "C": "552",
            "D": "0.32218",
            "Tmin": "200",
            "Tmax": "541.34"
        },
        "kmol/m3"
    ],
    "VaporPressure": [
        {
            "eqno": "101",
            "A": "156.6278",
            "B": "-11701.22",
            "C": "-19.61134",
            "D": "0.0000119964",
            "E": "2",
            "Tmin": "200",
            "Tmax": "560.3"
        },
        "Pa"
    ],
    "HeatOfVaporization": [
        {
            "eqno": "106",
            "A": "8.4515E+07",
            "B": "0.5603",
            "C": "0.52669",
            "D": "-1.3675",
            "E": "0.83639",
            "Tmin": "200",
            "Tmax": "541.34"
        },
        "J/kmol"
    ],
    "LiquidHeatCapacityCp": [
        {
            "eqno": "16",
            "A": "223900",
            "B": "2827.9",
            "C": "-24.806",
            "D": "0.11426",
            "E": "-0.00010479",
            "Tmin": "276",
            "Tmax": "420.22"
        },
        "J/kmol/K"
    ],
    "IdealGasHeatCapacityCp": [
        {
            "eqno": "16",
            "A": "81533",
            "B": "-562.17",
            "C": "12.749",
            "D": "0.00015514",
            "E": "-6.2807E-08",
            "Tmin": "273",
            "Tmax": "1500.15"
        },
        "J/kmol/K"
    ],
    "SecondVirialCoefficient": [
        {
            "eqno": "104",
            "A": "0.24133",
            "B": "-247.23",
            "C": "-35.04",
            "D": "43362",
            "E": "-173350",
            "Tmin": "280.15",
            "Tmax": "1500"
        },
        "m3/kmol"
    ],
    "LiquidViscosity": [
        {
            "eqno": "101",
            "A": "-161.5575",
            "B": "9388.477",
            "C": "22.02304",
            "D": "-0.0000121894",
            "E": "2",
            "Tmin": "200",
            "Tmax": "448.24"
        },
        "Pa.s"
    ],
    "VaporViscosity": [
        {
            "eqno": "102",
            "A": "3.2586E-07",
            "B": "0.63457",
            "C": "242.49",
            "D": "-572.84",
            "Tmin": "200",
            "Tmax": "1000"
        },
        "Pa.s"
    ],
    "LiquidThermalConductivity": [
        {
            "eqno": "16",
            "A": "-0.29342",
            "B": "50.682",
            "C": "-1.2923",
            "D": "0.0017888",
            "E": "-0.0000028966",
            "Tmin": "165.6",
            "Tmax": "435.6"
        },
        "W/m/K"
    ],
    "VaporThermalConductivity": [
        {
            "eqno": "102",
            "A": "1300.2",
            "B": "0.95377",
            "C": "8.1158E+09",
            "D": "-2.9211E+11",
            "Tmin": "392.15",
            "Tmax": "1000"
        },
        "W/m/K"
    ],
    "RPPHeatCapacityCp": [
        {
            "eqno": "4",
            "A": "5418.5",
            "B": "517.97",
            "C": "-0.28727",
            "D": "0.000060797",
            "Tmin": "273",
            "Tmax": "1500.15"
        },
        "J/kmol/K"
    ],
    "RelativeStaticPermittivity": [
        {
            "eqno": "120",
            "A": "-12.96",
            "B": "-6855",
            "C": "-41.13",
            "Tmin": "280",
            "Tmax": "450"
        },
        "_"
    ],
    "AntoineVaporPressure": [
        {
            "eqno": "10",
            "A": "21.365",
            "B": "2787.1",
            "C": "-109.05",
            "Tmin": "332.74",
            "Tmax": "484.45"
        },
        "Pa"
    ],
    "LiquidViscosityRPS": [
        {
            "eqno": "12",
            "A": "5.5268",
            "B": "-0.036204",
            "Tmin": "200",
            "Tmax": "448.24"
        },
        "Pa.s"
    ],
    "COSTALDVolume": [
        "0.335229",
        "m3/kmol"
    ],
    "DiameterLJ": [
        "6.473307E-10",
        "m"
    ],
    "EnergyLJ": [
        "282.3295",
        "K"
    ],
    "RacketParameter": [
        "0.26",
        "_"
    ],
    "FullerVolume": [
        "113.33",
        "_"
    ],
    "Parachor": [
        "0.0427674",
        "kg0.25.m3/s0.5/kmol"
    ],
    "SpecificGravity": [
        "0.813156",
        "_"
    ],
    "Charge": [
        "0",
        "_"
    ],
    "CostaldAcentricFactor": [
        "0.674371",
        "_"
    ],
    "WilsonVolume": [
        "0.109448",
        "m3/kmol"
    ],
    "ChaoSeaderAcentricFactor": [
        "0.558707",
        "_"
    ],
    "ChaoSeaderSolubilityParameter": [
        "21700",
        "J0.5/m1.5"
    ],
    "ChaoSeaderLiquidVolume": [
        "0.109448",
        "m3/kmol"
    ],
    "RadiusOfGyration": [
        "3.619E-10",
        "m"
    ],
    "VanDerWaalsVolume": [
        "0.06262",
        "m3/kmol"
    ],
    "VanDerWaalsArea": [
        "8.97E+08",
        "m2/kmol"
    ],
    "MatthiasCopemanC1": [
        "1.47",
        "_"
    ],
    "SolidDensity": [
        {
            "eqno": "2",
            "A": "11.7",
            "B": "4.0224E-17",
            "C": "0",
            "D": "0",
            "E": "0",
            "Tmin": "0",
            "Tmax": "9.5"
        },
        "kmol/m3"
    ],
    "SurfaceTension": [
        {
            "eqno": "16",
            "A": "-0.024272",
            "B": "-6.3975",
            "C": "-2.6095",
            "D": "-0.0005545",
            "E": "-0.0000026816",
            "Tmin": "200",
            "Tmax": "541.34"
        },
        "N/m"
    ],
    "MatthiasCopemanC2": [
        "0",
        "_"
    ],
    "UniquacR": [
        "4.5979",
        "_"
    ],
    "UniquacQ": [
        "4.204",
        "_"
    ],
    "ApiSrkS2": [
        "0.04628",
        "_"
    ],
    "MatthiasCopemanC3": [
        "0",
        "_"
    ],
    "SolidHeatCapacityCp": [
        {
            "eqno": "1",
            "A": "158590",
            "Tmin": "0",
            "Tmax": "552"
        },
        "J/kmol/K"
    ],
    "UniquacQP": [
        "4.936",
        "_"
    ],
    "ApiSrkS1": [
        "0.886894",
        "_"
    ]
}