{
    "CAS": "605-02-7",
    "LibraryIndex": "710",
    "CompoundID": "1-phenylnaphthalene",
    "StructureFormula": "(C6H4)(C4H3)(C6H5)",
    "Family": "19",
    "CriticalTemperature": [
        "849",
        "K"
    ],
    "CriticalPressure": [
        "2630000",
        "Pa"
    ],
    "CriticalVolume": [
        "0.656",
        "m3/kmol"
    ],
    "CriticalCompressibility": [
        "0.244",
        "_"
    ],
    "NormalBoilingPointTemperature": [
        "607.15",
        "K"
    ],
    "NormalMeltingPointTemperature": [
        "318.15",
        "K"
    ],
    "TriplePointTemperature": [
        "318.15",
        "K"
    ],
    "TriplePointPressure": [
        "0.282425",
        "Pa"
    ],
    "MolecularWeight": [
        "204.266",
        "kg/kmol"
    ],
    "LiquidVolumeAtNormalBoilingPoint": [
        "0.189925",
        "m3/kmol"
    ],
    "AcentricityFactor": [
        "0.530878",
        "_"
    ],
    "SolubilityParameter": [
        "19910",
        "J0.5/m1.5"
    ],
    "DipoleMoment": [
        "0",
        "Coulomb.m"
    ],
    "HeatOfFormation": [
        "2.47E+08",
        "J/kmol"
    ],
    "GibbsEnergyOfFormation": [
        "3.71108E+08",
        "J/kmol"
    ],
    "AbsEntropy": [
        "459000",
        "J/kmol/K"
    ],
    "HeatOfFusionAtMeltingPoint": [
        "0",
        "J/kmol"
    ],
    "HeatOfCombustion": [
        "-7.92E+09",
        "J/kmol"
    ],
    "LiquidDensity": [
        {
            "eqno": "105",
            "A": "0.36822",
            "B": "0.24155",
            "C": "849",
            "D": "0.29048",
            "Tmin": "298.15",
            "Tmax": "849"
        },
        "kmol/m3"
    ],
    "VaporPressure": [
        {
            "eqno": "101",
            "A": "136.2471",
            "B": "-14614.66",
            "C": "-16.02104",
            "D": "5.425361E-06",
            "E": "2",
            "Tmin": "318.15",
            "Tmax": "849"
        },
        "Pa"
    ],
    "HeatOfVaporization": [
        {
            "eqno": "106",
            "A": "1.0967E+08",
            "B": "1.3201",
            "C": "-2.3901",
            "D": "2.4598",
            "E": "-0.96728",
            "Tmin": "318.15",
            "Tmax": "849"
        },
        "J/kmol"
    ],
    "LiquidHeatCapacityCp": [
        {
            "eqno": "16",
            "A": "180260",
            "B": "-2.5213",
            "C": "10.037",
            "D": "0.0072742",
            "E": "-0.0000049656",
            "Tmin": "318.15",
            "Tmax": "607.15"
        },
        "J/kmol/K"
    ],
    "IdealGasHeatCapacityCp": [
        {
            "eqno": "16",
            "A": "77509",
            "B": "-521.03",
            "C": "13.602",
            "D": "-0.000094316",
            "E": "9.2363E-09",
            "Tmin": "273",
            "Tmax": "1500"
        },
        "J/kmol/K"
    ],
    "SecondVirialCoefficient": [
        {
            "eqno": "104",
            "A": "0.47323",
            "B": "-716.5",
            "C": "-343.69",
            "D": "-698990",
            "E": "1354800",
            "Tmin": "424.5",
            "Tmax": "2000"
        },
        "m3/kmol"
    ],
    "LiquidViscosity": [
        {
            "eqno": "101",
            "A": "-6.144",
            "B": "1205.6",
            "C": "-0.56682",
            "D": "-0.0000005706",
            "E": "2",
            "Tmin": "318.15",
            "Tmax": "678.15"
        },
        "Pa.s"
    ],
    "VaporViscosity": [
        {
            "eqno": "102",
            "A": "0.0000030793",
            "B": "0.30949",
            "C": "742.15",
            "D": "16342",
            "Tmin": "607.15",
            "Tmax": "1000"
        },
        "Pa.s"
    ],
    "LiquidThermalConductivity": [
        {
            "eqno": "16",
            "A": "-0.052282",
            "B": "-21.251",
            "C": "-1.3126",
            "D": "-0.00073663",
            "E": "-3.6032E-07",
            "Tmin": "318.15",
            "Tmax": "607.15"
        },
        "W/m/K"
    ],
    "VaporThermalConductivity": [
        {
            "eqno": "102",
            "A": "0.000092251",
            "B": "0.99676",
            "C": "619.05",
            "D": "42835",
            "Tmin": "607.15",
            "Tmax": "1000"
        },
        "W/m/K"
    ],
    "RPPHeatCapacityCp": [
        {
            "eqno": "4",
            "A": "-76343",
            "B": "1203.5",
            "C": "-0.80842",
            "D": "0.00020016",
            "Tmin": "300",
            "Tmax": "1500"
        },
        "J/kmol/K"
    ],
    "RelativeStaticPermittivity": [
        {
            "eqno": "120",
            "A": "-1.4825",
            "B": "-1000",
            "C": "-6",
            "Tmin": "274.15",
            "Tmax": "444.15"
        },
        "_"
    ],
    "AntoineVaporPressure": [
        {
            "eqno": "10",
            "A": "21.23",
            "B": "4746.4",
            "C": "-118.29",
            "Tmin": "513.73",
            "Tmax": "742.83"
        },
        "Pa"
    ],
    "LiquidViscosityRPS": [
        {
            "eqno": "13",
            "A": "-0.84135",
            "B": "-0.019285",
            "C": "0.000012308",
            "Tmin": "318.15",
            "Tmax": "678.15"
        },
        "Pa.s"
    ],
    "COSTALDVolume": [
        "0.664833",
        "m3/kmol"
    ],
    "DiameterLJ": [
        "8.810728E-10",
        "m"
    ],
    "EnergyLJ": [
        "345.4811",
        "K"
    ],
    "RacketParameter": [
        "0.246034",
        "_"
    ],
    "FullerVolume": [
        "227.22",
        "_"
    ],
    "Parachor": [
        "0.0865",
        "kg0.25.m3/s0.5/kmol"
    ],
    "SpecificGravity": [
        "1.097",
        "_"
    ],
    "Charge": [
        "0",
        "_"
    ],
    "CostaldAcentricFactor": [
        "0.530878",
        "_"
    ],
    "WilsonVolume": [
        "0.189925",
        "m3/kmol"
    ],
    "ChaoSeaderAcentricFactor": [
        "0.530878",
        "_"
    ],
    "ChaoSeaderSolubilityParameter": [
        "19911.7",
        "J0.5/m1.5"
    ],
    "ChaoSeaderLiquidVolume": [
        "0.189925",
        "m3/kmol"
    ],
    "RadiusOfGyration": [
        "5.641E-10",
        "m"
    ],
    "VanDerWaalsVolume": [
        "0.1165",
        "m3/kmol"
    ],
    "VanDerWaalsArea": [
        "1.296E+09",
        "m2/kmol"
    ],
    "MatthiasCopemanC1": [
        "1.4078",
        "_"
    ],
    "SolidDensity": [
        {
            "eqno": "2",
            "A": "5.3654",
            "B": "-3.9158E-09",
            "Tmin": "293.15",
            "Tmax": "302.65"
        },
        "kmol/m3"
    ],
    "SurfaceTension": [
        {
            "eqno": "16",
            "A": "-0.0092731",
            "B": "179.4",
            "C": "-3.7906",
            "D": "0.0020974",
            "E": "-0.0000040352",
            "Tmin": "318.15",
            "Tmax": "849"
        },
        "N/m"
    ],
    "MatthiasCopemanC2": [
        "-1.4079",
        "_"
    ],
    "UniquacR": [
        "7.679631",
        "_"
    ],
    "UniquacQ": [
        "5.184",
        "_"
    ],
    "ApiSrkS2": [
        "-0.033625",
        "_"
    ],
    "MatthiasCopemanC3": [
        "2.1204",
        "_"
    ],
    "SolidHeatCapacityCp": [
        {
            "eqno": "100",
            "A": "-5568.7",
            "B": "1416",
            "C": "-6.3534",
            "D": "0.022718",
            "E": "-0.000029424",
            "Tmin": "50",
            "Tmax": "318.15"
        },
        "J/kmol/K"
    ],
    "UniquacQP": [
        "4.936",
        "_"
    ],
    "ApiSrkS1": [
        "0.745244",
        "_"
    ]
}