{
    "CAS": "611-14-3",
    "LibraryIndex": "511",
    "CompoundID": "O-ethyltoluene",
    "StructureFormula": "CH3(C6H4)CH2CH3",
    "Family": "17",
    "CriticalTemperature": [
        "651.15",
        "K"
    ],
    "CriticalPressure": [
        "3040000",
        "Pa"
    ],
    "CriticalVolume": [
        "0.46",
        "m3/kmol"
    ],
    "CriticalCompressibility": [
        "0.26",
        "_"
    ],
    "NormalBoilingPointTemperature": [
        "438.33",
        "K"
    ],
    "NormalMeltingPointTemperature": [
        "192.35",
        "K"
    ],
    "TriplePointTemperature": [
        "192.35",
        "K"
    ],
    "TriplePointPressure": [
        "0.00376669",
        "Pa"
    ],
    "MolecularWeight": [
        "120.192",
        "kg/kmol"
    ],
    "LiquidVolumeAtNormalBoilingPoint": [
        "0.136967",
        "m3/kmol"
    ],
    "AcentricityFactor": [
        "0.2941",
        "_"
    ],
    "SolubilityParameter": [
        "18090",
        "J0.5/m1.5"
    ],
    "DipoleMoment": [
        "1.87E-30",
        "Coulomb.m"
    ],
    "HeatOfFormation": [
        "1213360",
        "J/kmol"
    ],
    "GibbsEnergyOfFormation": [
        "1.31055E+08",
        "J/kmol"
    ],
    "AbsEntropy": [
        "399350",
        "J/kmol/K"
    ],
    "HeatOfFusionAtMeltingPoint": [
        "9962100",
        "J/kmol"
    ],
    "HeatOfCombustion": [
        "-4.94607E+09",
        "J/kmol"
    ],
    "LiquidDensity": [
        {
            "eqno": "105",
            "A": "0.37928",
            "B": "0.20513",
            "C": "651.15",
            "D": "0.23356",
            "Tmin": "192.35",
            "Tmax": "646.15"
        },
        "kmol/m3"
    ],
    "VaporPressure": [
        {
            "eqno": "101",
            "A": "96.1971",
            "B": "-8650.261",
            "C": "-10.86209",
            "D": "5.918239E-06",
            "E": "2",
            "Tmin": "192.35",
            "Tmax": "650"
        },
        "Pa"
    ],
    "HeatOfVaporization": [
        {
            "eqno": "106",
            "A": "8.227273E+07",
            "B": "1.968046",
            "C": "-3.535916",
            "D": "3.107317",
            "E": "-1.061436",
            "Tmin": "192.35",
            "Tmax": "650"
        },
        "J/kmol"
    ],
    "LiquidHeatCapacityCp": [
        {
            "eqno": "16",
            "A": "-102370",
            "B": "-26.419",
            "C": "12.162",
            "D": "0.0026059",
            "E": "-0.000002126",
            "Tmin": "192.35",
            "Tmax": "438.33"
        },
        "J/kmol/K"
    ],
    "IdealGasHeatCapacityCp": [
        {
            "eqno": "16",
            "A": "85432",
            "B": "-569.61",
            "C": "13.054",
            "D": "0.000095945",
            "E": "-4.3717E-08",
            "Tmin": "150",
            "Tmax": "1500"
        },
        "J/kmol/K"
    ],
    "SecondVirialCoefficient": [
        {
            "eqno": "104",
            "A": "0.28121",
            "B": "-390.33",
            "C": "-73.261",
            "D": "-55800",
            "E": "123430",
            "Tmin": "325",
            "Tmax": "1953"
        },
        "m3/kmol"
    ],
    "LiquidViscosity": [
        {
            "eqno": "101",
            "A": "-10.303",
            "B": "1378.1",
            "C": "-0.24629",
            "D": "5.1436E-07",
            "E": "2",
            "Tmin": "192.35",
            "Tmax": "613.15"
        },
        "Pa.s"
    ],
    "VaporViscosity": [
        {
            "eqno": "102",
            "A": "4.4089E-07",
            "B": "0.56719",
            "C": "270.1",
            "D": "-4560.2",
            "Tmin": "192.35",
            "Tmax": "1000"
        },
        "Pa.s"
    ],
    "LiquidThermalConductivity": [
        {
            "eqno": "16",
            "A": "-0.059289",
            "B": "4.2071",
            "C": "-1.4739",
            "D": "-0.00039236",
            "E": "-0.0000010623",
            "Tmin": "192.35",
            "Tmax": "438.33"
        },
        "W/m/K"
    ],
    "VaporThermalConductivity": [
        {
            "eqno": "102",
            "A": "0.000092842",
            "B": "1.0422",
            "C": "544.16",
            "D": "63099",
            "Tmin": "438.33",
            "Tmax": "1000"
        },
        "W/m/K"
    ],
    "RPPHeatCapacityCp": [
        {
            "eqno": "4",
            "A": "1934.6",
            "B": "607.55",
            "C": "-0.29066",
            "D": "0.000046885",
            "Tmin": "150",
            "Tmax": "1500"
        },
        "J/kmol/K"
    ],
    "RelativeStaticPermittivity": [
        {
            "eqno": "120",
            "A": "-1.5046",
            "B": "-1050",
            "C": "-6.3",
            "Tmin": "278.5945",
            "Tmax": "448.5945"
        },
        "_"
    ],
    "AntoineVaporPressure": [
        {
            "eqno": "10",
            "A": "21.073",
            "B": "3576.5",
            "C": "-63.713",
            "Tmin": "394.26",
            "Tmax": "577.74"
        },
        "Pa"
    ],
    "LiquidViscosityRPS": [
        {
            "eqno": "12",
            "A": "-2.7738",
            "B": "-0.013269",
            "Tmin": "192.35",
            "Tmax": "613.15"
        },
        "Pa.s"
    ],
    "COSTALDVolume": [
        "0.440073",
        "m3/kmol"
    ],
    "DiameterLJ": [
        "7.253199E-10",
        "m"
    ],
    "EnergyLJ": [
        "333.0414",
        "K"
    ],
    "RacketParameter": [
        "0.26",
        "_"
    ],
    "FullerVolume": [
        "152.52",
        "_"
    ],
    "Parachor": [
        "0.0565227",
        "kg0.25.m3/s0.5/kmol"
    ],
    "SpecificGravity": [
        "0.885597",
        "_"
    ],
    "Charge": [
        "0",
        "_"
    ],
    "CostaldAcentricFactor": [
        "0.2941",
        "_"
    ],
    "WilsonVolume": [
        "0.136967",
        "m3/kmol"
    ],
    "ChaoSeaderAcentricFactor": [
        "0.2941",
        "_"
    ],
    "ChaoSeaderSolubilityParameter": [
        "18090",
        "J0.5/m1.5"
    ],
    "ChaoSeaderLiquidVolume": [
        "0.136967",
        "m3/kmol"
    ],
    "RadiusOfGyration": [
        "4.084E-10",
        "m"
    ],
    "VanDerWaalsVolume": [
        "0.08089",
        "m3/kmol"
    ],
    "VanDerWaalsArea": [
        "1.019E+09",
        "m2/kmol"
    ],
    "MatthiasCopemanC1": [
        "0.96524",
        "_"
    ],
    "SolidDensity": [
        {
            "eqno": "2",
            "A": "10.148",
            "B": "-0.0059039",
            "C": "0",
            "D": "0",
            "E": "0",
            "Tmin": "76.94",
            "Tmax": "192.35"
        },
        "kmol/m3"
    ],
    "SurfaceTension": [
        {
            "eqno": "16",
            "A": "-0.0095325",
            "B": "42.422",
            "C": "-3.1128",
            "D": "0.0004594",
            "E": "-0.0000045591",
            "Tmin": "192.35",
            "Tmax": "650"
        },
        "N/m"
    ],
    "MatthiasCopemanC2": [
        "0",
        "_"
    ],
    "UniquacR": [
        "5.3322",
        "_"
    ],
    "UniquacQ": [
        "4.076",
        "_"
    ],
    "ApiSrkS2": [
        "0.047885",
        "_"
    ],
    "MatthiasCopemanC3": [
        "0",
        "_"
    ],
    "SolidHeatCapacityCp": [
        {
            "eqno": "1",
            "A": "188730",
            "Tmin": "0",
            "Tmax": "651.15"
        },
        "J/kmol/K"
    ],
    "UniquacQP": [
        "4.936",
        "_"
    ],
    "ApiSrkS1": [
        "0.59245",
        "_"
    ]
}