{
    "CAS": "617-78-7",
    "LibraryIndex": "20",
    "CompoundID": "3-ethylpentane",
    "StructureFormula": "CH3CH2CH(CH2CH3)CH2CH3",
    "Family": "4",
    "CriticalTemperature": [
        "540.5",
        "K"
    ],
    "CriticalPressure": [
        "2890000",
        "Pa"
    ],
    "CriticalVolume": [
        "0.4158",
        "m3/kmol"
    ],
    "CriticalCompressibility": [
        "0.267",
        "_"
    ],
    "NormalBoilingPointTemperature": [
        "366.63",
        "K"
    ],
    "NormalMeltingPointTemperature": [
        "154.55",
        "K"
    ],
    "TriplePointTemperature": [
        "154.55",
        "K"
    ],
    "TriplePointPressure": [
        "0.00170947",
        "Pa"
    ],
    "MolecularWeight": [
        "100.204",
        "kg/kmol"
    ],
    "LiquidVolumeAtNormalBoilingPoint": [
        "0.1444",
        "m3/kmol"
    ],
    "AcentricityFactor": [
        "0.311",
        "_"
    ],
    "SolubilityParameter": [
        "15040",
        "J0.5/m1.5"
    ],
    "DipoleMoment": [
        "0",
        "Coulomb.m"
    ],
    "HeatOfFormation": [
        "-1.89661E+08",
        "J/kmol"
    ],
    "GibbsEnergyOfFormation": [
        "1.09202E+07",
        "J/kmol"
    ],
    "AbsEntropy": [
        "411540",
        "J/kmol/K"
    ],
    "HeatOfFusionAtMeltingPoint": [
        "9547890",
        "J/kmol"
    ],
    "HeatOfCombustion": [
        "-4.4642E+09",
        "J/kmol"
    ],
    "LiquidDensity": [
        {
            "eqno": "105",
            "A": "0.56112",
            "B": "0.24813",
            "C": "540.61",
            "D": "0.27074",
            "Tmin": "154.55",
            "Tmax": "540.6"
        },
        "kmol/m3"
    ],
    "VaporPressure": [
        {
            "eqno": "101",
            "A": "89.99315",
            "B": "-6915.896",
            "C": "-10.27777",
            "D": "8.039283E-06",
            "E": "2",
            "Tmin": "154.55",
            "Tmax": "540.6"
        },
        "Pa"
    ],
    "HeatOfVaporization": [
        {
            "eqno": "106",
            "A": "5.3257E+07",
            "B": "1.2647",
            "C": "-2.6729",
            "D": "3.1124",
            "E": "-1.3109",
            "Tmin": "154.55",
            "Tmax": "520.28"
        },
        "J/kmol"
    ],
    "LiquidHeatCapacityCp": [
        {
            "eqno": "16",
            "A": "152590",
            "B": "204.56",
            "C": "5.9318",
            "D": "0.021701",
            "E": "-0.000022224",
            "Tmin": "250",
            "Tmax": "300"
        },
        "J/kmol/K"
    ],
    "IdealGasHeatCapacityCp": [
        {
            "eqno": "16",
            "A": "102980",
            "B": "-630.04",
            "C": "13.15",
            "D": "0.000058616",
            "E": "-2.6799E-08",
            "Tmin": "200",
            "Tmax": "1500"
        },
        "J/kmol/K"
    ],
    "SecondVirialCoefficient": [
        {
            "eqno": "104",
            "A": "0.24168",
            "B": "-300.63",
            "C": "-39.661",
            "D": "-8353.5",
            "E": "16171",
            "Tmin": "270.3",
            "Tmax": "1971.32"
        },
        "m3/kmol"
    ],
    "LiquidViscosity": [
        {
            "eqno": "101",
            "A": "-11.885",
            "B": "1001.1",
            "C": "0.10351",
            "D": "-0.0000003544",
            "E": "2",
            "Tmin": "154.55",
            "Tmax": "366.62"
        },
        "Pa.s"
    ],
    "VaporViscosity": [
        {
            "eqno": "102",
            "A": "6.1521E-07",
            "B": "0.52741",
            "C": "287.77",
            "D": "1840.5",
            "Tmin": "366.62",
            "Tmax": "1000"
        },
        "Pa.s"
    ],
    "LiquidThermalConductivity": [
        {
            "eqno": "16",
            "A": "-0.055574",
            "B": "4.7874",
            "C": "-1.5746",
            "D": "-0.0003945",
            "E": "-0.0000016303",
            "Tmin": "154.55",
            "Tmax": "366.62"
        },
        "W/m/K"
    ],
    "VaporThermalConductivity": [
        {
            "eqno": "102",
            "A": "0.000065519",
            "B": "1.0691",
            "C": "-74.423",
            "D": "161360",
            "Tmin": "366.62",
            "Tmax": "1000"
        },
        "W/m/K"
    ],
    "RPPHeatCapacityCp": [
        {
            "eqno": "100",
            "A": "63173",
            "B": "162.52",
            "C": "0.96789",
            "D": "-0.0013392",
            "E": "0.0000005303",
            "Tmin": "200",
            "Tmax": "1000"
        },
        "J/kmol/K"
    ],
    "RelativeStaticPermittivity": [
        {
            "eqno": "120",
            "A": "-1.404923",
            "B": "-950",
            "C": "-5.7",
            "Tmin": "274.15",
            "Tmax": "444.15"
        },
        "_"
    ],
    "AntoineVaporPressure": [
        {
            "eqno": "10",
            "A": "20.873",
            "B": "2975.2",
            "C": "-48.333",
            "Tmin": "326.9",
            "Tmax": "479.64"
        },
        "Pa"
    ],
    "LiquidViscosityRPS": [
        {
            "eqno": "12",
            "A": "-2.9085",
            "B": "-0.016578",
            "Tmin": "154.55",
            "Tmax": "366.62"
        },
        "Pa.s"
    ],
    "COSTALDVolume": [
        "0.425892",
        "m3/kmol"
    ],
    "DiameterLJ": [
        "6.792969E-10",
        "m"
    ],
    "EnergyLJ": [
        "304.1931",
        "K"
    ],
    "RacketParameter": [
        "0.267",
        "_"
    ],
    "FullerVolume": [
        "148.26",
        "_"
    ],
    "Parachor": [
        "0.0540613",
        "kg0.25.m3/s0.5/kmol"
    ],
    "SpecificGravity": [
        "0.704619",
        "_"
    ],
    "Charge": [
        "0",
        "_"
    ],
    "CostaldAcentricFactor": [
        "0.311",
        "_"
    ],
    "WilsonVolume": [
        "0.1444",
        "m3/kmol"
    ],
    "ChaoSeaderAcentricFactor": [
        "0.311",
        "_"
    ],
    "ChaoSeaderSolubilityParameter": [
        "15040",
        "J0.5/m1.5"
    ],
    "ChaoSeaderLiquidVolume": [
        "0.1444",
        "m3/kmol"
    ],
    "RadiusOfGyration": [
        "3.943E-10",
        "m"
    ],
    "VanDerWaalsVolume": [
        "0.0784799",
        "m3/kmol"
    ],
    "VanDerWaalsArea": [
        "1.098E+09",
        "m2/kmol"
    ],
    "MatthiasCopemanC1": [
        "0.99001",
        "_"
    ],
    "SolidDensity": [
        {
            "eqno": "2",
            "A": "10.258",
            "B": "-0.0073712",
            "C": "0",
            "D": "0",
            "E": "0",
            "Tmin": "61.82",
            "Tmax": "154.55"
        },
        "kmol/m3"
    ],
    "SurfaceTension": [
        {
            "eqno": "16",
            "A": "-0.012077",
            "B": "20.986",
            "C": "-3.0408",
            "D": "-0.00022974",
            "E": "-0.0000045333",
            "Tmin": "154.55",
            "Tmax": "520.28"
        },
        "N/m"
    ],
    "MatthiasCopemanC2": [
        "-0.36464",
        "_"
    ],
    "UniquacR": [
        "5.1734",
        "_"
    ],
    "UniquacQ": [
        "4.392",
        "_"
    ],
    "ApiSrkS2": [
        "0.000168",
        "_"
    ],
    "MatthiasCopemanC3": [
        "0.76463",
        "_"
    ],
    "SolidHeatCapacityCp": [
        {
            "eqno": "1",
            "A": "197190",
            "Tmin": "0",
            "Tmax": "540.5"
        },
        "J/kmol/K"
    ],
    "UniquacQP": [
        "4.936",
        "_"
    ],
    "ApiSrkS1": [
        "0.59245",
        "_"
    ]
}