{
    "CAS": "618-85-9",
    "LibraryIndex": "2749",
    "CompoundID": "3,5-dinitrotoluene",
    "StructureFormula": "CH3(C6H3)(NO2)2",
    "Family": "39",
    "CriticalTemperature": [
        "800",
        "K"
    ],
    "CriticalPressure": [
        "2150000",
        "Pa"
    ],
    "CriticalVolume": [
        "0.487",
        "m3/kmol"
    ],
    "CriticalCompressibility": [
        "0.238",
        "_"
    ],
    "NormalBoilingPointTemperature": [
        "588",
        "K"
    ],
    "NormalMeltingPointTemperature": [
        "366.15",
        "K"
    ],
    "TriplePointTemperature": [
        "365.65",
        "K"
    ],
    "TriplePointPressure": [
        "35.4684",
        "Pa"
    ],
    "MolecularWeight": [
        "182.134",
        "kg/kmol"
    ],
    "LiquidVolumeAtNormalBoilingPoint": [
        "0.140577",
        "m3/kmol"
    ],
    "AcentricityFactor": [
        "0.702302",
        "_"
    ],
    "SolubilityParameter": [
        "21440",
        "J0.5/m1.5"
    ],
    "DipoleMoment": [
        "1.44E-29",
        "Coulomb.m"
    ],
    "HeatOfFormation": [
        "2.71E+07",
        "J/kmol"
    ],
    "GibbsEnergyOfFormation": [
        "2.34E+08",
        "J/kmol"
    ],
    "AbsEntropy": [
        "414000",
        "J/kmol/K"
    ],
    "HeatOfFusionAtMeltingPoint": [
        "2.29E+07",
        "J/kmol"
    ],
    "HeatOfCombustion": [
        "-3.437E+09",
        "J/kmol"
    ],
    "LiquidDensity": [
        {
            "eqno": "105",
            "A": "0.45727",
            "B": "0.227",
            "C": "814.01",
            "D": "0.27155",
            "Tmin": "365.65",
            "Tmax": "814"
        },
        "kmol/m3"
    ],
    "VaporPressure": [
        {
            "eqno": "101",
            "A": "63.61855",
            "B": "-10355.64",
            "C": "-5.423477",
            "D": "2.374318E-07",
            "E": "2",
            "Tmin": "365.65",
            "Tmax": "814"
        },
        "Pa"
    ],
    "HeatOfVaporization": [
        {
            "eqno": "106",
            "A": "5.989509E+07",
            "B": "-0.991558",
            "C": "3.414071",
            "D": "-4.448985",
            "E": "2.238465",
            "Tmin": "365.65",
            "Tmax": "790.4"
        },
        "J/kmol"
    ],
    "LiquidHeatCapacityCp": [
        {
            "eqno": "16",
            "A": "211860",
            "B": "-5.3058",
            "C": "8.1208",
            "D": "0.009225",
            "E": "-0.0000034389",
            "Tmin": "365.65",
            "Tmax": "588"
        },
        "J/kmol/K"
    ],
    "IdealGasHeatCapacityCp": [
        {
            "eqno": "16",
            "A": "94512",
            "B": "-582.56",
            "C": "13.27",
            "D": "-0.00026587",
            "E": "5.3735E-08",
            "Tmin": "273",
            "Tmax": "1500"
        },
        "J/kmol/K"
    ],
    "SecondVirialCoefficient": [
        {
            "eqno": "104",
            "A": "0.31159",
            "B": "-362.24",
            "C": "-319.87",
            "D": "-785450",
            "E": "1509600",
            "Tmin": "407",
            "Tmax": "1871"
        },
        "m3/kmol"
    ],
    "LiquidViscosity": [
        {
            "eqno": "101",
            "A": "-0.25652",
            "B": "2097.7",
            "C": "-2.0147",
            "D": "0.0000014987",
            "E": "2",
            "Tmin": "365.65",
            "Tmax": "588"
        },
        "Pa.s"
    ],
    "VaporViscosity": [
        {
            "eqno": "102",
            "A": "4.7633E-08",
            "B": "0.90246",
            "C": "116.57",
            "D": "-8469.6",
            "Tmin": "365.65",
            "Tmax": "1000"
        },
        "Pa.s"
    ],
    "LiquidThermalConductivity": [
        {
            "eqno": "16",
            "A": "-0.029795",
            "B": "-134.57",
            "C": "-0.63203",
            "D": "-0.0021751",
            "E": "3.0388E-07",
            "Tmin": "365.65",
            "Tmax": "588"
        },
        "W/m/K"
    ],
    "VaporThermalConductivity": [
        {
            "eqno": "102",
            "A": "0.00014433",
            "B": "0.92815",
            "C": "684.42",
            "D": "24021",
            "Tmin": "588",
            "Tmax": "1000"
        },
        "W/m/K"
    ],
    "RPPHeatCapacityCp": [
        {
            "eqno": "4",
            "A": "-14258",
            "B": "768.51",
            "C": "-0.52986",
            "D": "0.00013246",
            "Tmin": "273",
            "Tmax": "1500"
        },
        "J/kmol/K"
    ],
    "RelativeStaticPermittivity": [
        {
            "eqno": "120",
            "A": "-21.29583",
            "B": "-10000",
            "C": "-71.4",
            "Tmin": "274.15",
            "Tmax": "444.15"
        },
        "_"
    ],
    "AntoineVaporPressure": [
        {
            "eqno": "10",
            "A": "24.061",
            "B": "7289.5",
            "C": "-7.1177",
            "Tmin": "483.64",
            "Tmax": "719.61"
        },
        "Pa"
    ],
    "LiquidViscosityRPS": [
        {
            "eqno": "12",
            "A": "-1.8766",
            "B": "-0.012458",
            "Tmin": "365.65",
            "Tmax": "588"
        },
        "Pa.s"
    ],
    "COSTALDVolume": [
        "0.483027",
        "m3/kmol"
    ],
    "DiameterLJ": [
        "8.219819E-10",
        "m"
    ],
    "EnergyLJ": [
        "297.6324",
        "K"
    ],
    "RacketParameter": [
        "0.238",
        "_"
    ],
    "FullerVolume": [
        "122.08",
        "_"
    ],
    "Parachor": [
        "0.0647636",
        "kg0.25.m3/s0.5/kmol"
    ],
    "SpecificGravity": [
        "1.370051",
        "_"
    ],
    "Charge": [
        "0",
        "_"
    ],
    "CostaldAcentricFactor": [
        "0.702302",
        "_"
    ],
    "WilsonVolume": [
        "0.140577",
        "m3/kmol"
    ],
    "ChaoSeaderAcentricFactor": [
        "0.702302",
        "_"
    ],
    "ChaoSeaderSolubilityParameter": [
        "21440",
        "J0.5/m1.5"
    ],
    "ChaoSeaderLiquidVolume": [
        "0.140577",
        "m3/kmol"
    ],
    "RadiusOfGyration": [
        "5.314E-10",
        "m"
    ],
    "VanDerWaalsVolume": [
        "0.08807",
        "m3/kmol"
    ],
    "VanDerWaalsArea": [
        "1.112E+09",
        "m2/kmol"
    ],
    "MatthiasCopemanC1": [
        "1.21",
        "_"
    ],
    "SolidDensity": [
        {
            "eqno": "2",
            "A": "9.0259",
            "B": "-0.0027445",
            "C": "0",
            "D": "0",
            "E": "0",
            "Tmin": "146.26",
            "Tmax": "365.65"
        },
        "kmol/m3"
    ],
    "SurfaceTension": [
        {
            "eqno": "16",
            "A": "-0.02022",
            "B": "191.13",
            "C": "-3.4062",
            "D": "0.001628",
            "E": "-0.0000032376",
            "Tmin": "365.65",
            "Tmax": "790.4"
        },
        "N/m"
    ],
    "MatthiasCopemanC2": [
        "0",
        "_"
    ],
    "UniquacR": [
        "5.7",
        "_"
    ],
    "UniquacQ": [
        "4.376",
        "_"
    ],
    "ApiSrkS2": [
        "0.141244",
        "_"
    ],
    "MatthiasCopemanC3": [
        "0",
        "_"
    ],
    "SolidHeatCapacityCp": [
        {
            "eqno": "100",
            "A": "8551.8",
            "B": "908.56",
            "C": "-1.4311",
            "D": "0.0028756",
            "E": "-0.0000025075",
            "Tmin": "50",
            "Tmax": "365.65"
        },
        "J/kmol/K"
    ],
    "UniquacQP": [
        "4.936",
        "_"
    ],
    "ApiSrkS1": [
        "0.529899",
        "_"
    ]
}