{
    "CAS": "620-14-4",
    "LibraryIndex": "512",
    "CompoundID": "M-ethyltoluene",
    "StructureFormula": "CH3(C6H4)CH2CH3",
    "Family": "17",
    "CriticalTemperature": [
        "637.15",
        "K"
    ],
    "CriticalPressure": [
        "2840000",
        "Pa"
    ],
    "CriticalVolume": [
        "0.49",
        "m3/kmol"
    ],
    "CriticalCompressibility": [
        "0.254",
        "_"
    ],
    "NormalBoilingPointTemperature": [
        "434.48",
        "K"
    ],
    "NormalMeltingPointTemperature": [
        "177.61",
        "K"
    ],
    "TriplePointTemperature": [
        "177.61",
        "K"
    ],
    "TriplePointPressure": [
        "0.000664959",
        "Pa"
    ],
    "MolecularWeight": [
        "120.192",
        "kg/kmol"
    ],
    "LiquidVolumeAtNormalBoilingPoint": [
        "0.139685",
        "m3/kmol"
    ],
    "AcentricityFactor": [
        "0.3232",
        "_"
    ],
    "SolubilityParameter": [
        "17630",
        "J0.5/m1.5"
    ],
    "DipoleMoment": [
        "1.1E-30",
        "Coulomb.m"
    ],
    "HeatOfFormation": [
        "-1920000",
        "J/kmol"
    ],
    "GibbsEnergyOfFormation": [
        "1.2643E+08",
        "J/kmol"
    ],
    "AbsEntropy": [
        "404280",
        "J/kmol/K"
    ],
    "HeatOfFusionAtMeltingPoint": [
        "7610000",
        "J/kmol"
    ],
    "HeatOfCombustion": [
        "-4.94377E+09",
        "J/kmol"
    ],
    "LiquidDensity": [
        {
            "eqno": "105",
            "A": "0.61007",
            "B": "0.26045",
            "C": "637.15",
            "D": "0.2946",
            "Tmin": "177.61",
            "Tmax": "612.96"
        },
        "kmol/m3"
    ],
    "VaporPressure": [
        {
            "eqno": "101",
            "A": "59.906",
            "B": "-6895.5",
            "C": "-5.4176",
            "D": "0.00000211",
            "E": "2",
            "Tmin": "177.61",
            "Tmax": "637.15"
        },
        "Pa"
    ],
    "HeatOfVaporization": [
        {
            "eqno": "106",
            "A": "6.562712E+07",
            "B": "1.251642",
            "C": "-2.311984",
            "D": "2.123485",
            "E": "-0.635116",
            "Tmin": "177.61",
            "Tmax": "612.96"
        },
        "J/kmol"
    ],
    "LiquidHeatCapacityCp": [
        {
            "eqno": "16",
            "A": "136340",
            "B": "-1484.6",
            "C": "20.724",
            "D": "-0.020829",
            "E": "0.000018949",
            "Tmin": "177.61",
            "Tmax": "434.48"
        },
        "J/kmol/K"
    ],
    "IdealGasHeatCapacityCp": [
        {
            "eqno": "16",
            "A": "77831",
            "B": "-586.35",
            "C": "13.16",
            "D": "0.0000010287",
            "E": "-1.3417E-08",
            "Tmin": "200",
            "Tmax": "1500"
        },
        "J/kmol/K"
    ],
    "SecondVirialCoefficient": [
        {
            "eqno": "104",
            "A": "0.30122",
            "B": "-402.05",
            "C": "-67.704",
            "D": "-53853",
            "E": "119410",
            "Tmin": "318.5",
            "Tmax": "1500"
        },
        "m3/kmol"
    ],
    "LiquidViscosity": [
        {
            "eqno": "101",
            "A": "-10.732",
            "B": "1285.7",
            "C": "-0.12931",
            "D": "2.7444E-07",
            "E": "2",
            "Tmin": "177.61",
            "Tmax": "434.48"
        },
        "Pa.s"
    ],
    "VaporViscosity": [
        {
            "eqno": "102",
            "A": "4.7246E-07",
            "B": "0.55389",
            "C": "274.11",
            "D": "-5848.6",
            "Tmin": "177.61",
            "Tmax": "1000"
        },
        "Pa.s"
    ],
    "LiquidThermalConductivity": [
        {
            "eqno": "16",
            "A": "-0.048117",
            "B": "4.2831",
            "C": "-1.5331",
            "D": "-0.00039971",
            "E": "-0.0000012216",
            "Tmin": "177.61",
            "Tmax": "434.48"
        },
        "W/m/K"
    ],
    "VaporThermalConductivity": [
        {
            "eqno": "102",
            "A": "0.000091259",
            "B": "1.0513",
            "C": "653.39",
            "D": "40428",
            "Tmin": "434.48",
            "Tmax": "1000"
        },
        "W/m/K"
    ],
    "RPPHeatCapacityCp": [
        {
            "eqno": "4",
            "A": "-22026",
            "B": "689.66",
            "C": "-0.38171",
            "D": "0.000078428",
            "Tmin": "200",
            "Tmax": "1500"
        },
        "J/kmol/K"
    ],
    "RelativeStaticPermittivity": [
        {
            "eqno": "120",
            "A": "-1.638772",
            "B": "-1100",
            "C": "-6.6",
            "Tmin": "274.15",
            "Tmax": "444.15"
        },
        "_"
    ],
    "AntoineVaporPressure": [
        {
            "eqno": "10",
            "A": "21.48",
            "B": "3836.8",
            "C": "-48.994",
            "Tmin": "383.15",
            "Tmax": "564.59"
        },
        "Pa"
    ],
    "LiquidViscosityRPS": [
        {
            "eqno": "12",
            "A": "-1.9923",
            "B": "-0.016106",
            "Tmin": "177.61",
            "Tmax": "434.48"
        },
        "Pa.s"
    ],
    "COSTALDVolume": [
        "0.440073",
        "m3/kmol"
    ],
    "DiameterLJ": [
        "7.618039E-10",
        "m"
    ],
    "EnergyLJ": [
        "299.61",
        "K"
    ],
    "RacketParameter": [
        "0.254",
        "_"
    ],
    "FullerVolume": [
        "152.52",
        "_"
    ],
    "Parachor": [
        "0.0566058",
        "kg0.25.m3/s0.5/kmol"
    ],
    "SpecificGravity": [
        "0.869111",
        "_"
    ],
    "Charge": [
        "0",
        "_"
    ],
    "CostaldAcentricFactor": [
        "0.3232",
        "_"
    ],
    "WilsonVolume": [
        "0.139685",
        "m3/kmol"
    ],
    "ChaoSeaderAcentricFactor": [
        "0.3232",
        "_"
    ],
    "ChaoSeaderSolubilityParameter": [
        "17630",
        "J0.5/m1.5"
    ],
    "ChaoSeaderLiquidVolume": [
        "0.139685",
        "m3/kmol"
    ],
    "RadiusOfGyration": [
        "4.265E-10",
        "m"
    ],
    "VanDerWaalsVolume": [
        "0.08089",
        "m3/kmol"
    ],
    "VanDerWaalsArea": [
        "1.019E+09",
        "m2/kmol"
    ],
    "MatthiasCopemanC1": [
        "0.98305",
        "_"
    ],
    "SolidDensity": [
        {
            "eqno": "2",
            "A": "10.088",
            "B": "-0.0063302",
            "C": "0",
            "D": "0",
            "E": "0",
            "Tmin": "71.04",
            "Tmax": "177.61"
        },
        "kmol/m3"
    ],
    "SurfaceTension": [
        {
            "eqno": "16",
            "A": "-0.008518",
            "B": "41.345",
            "C": "-3.1089",
            "D": "0.00042327",
            "E": "-0.0000050765",
            "Tmin": "177.61",
            "Tmax": "612.96"
        },
        "N/m"
    ],
    "MatthiasCopemanC2": [
        "0",
        "_"
    ],
    "UniquacR": [
        "5.3322",
        "_"
    ],
    "UniquacQ": [
        "4.076",
        "_"
    ],
    "ApiSrkS2": [
        "0.036093",
        "_"
    ],
    "MatthiasCopemanC3": [
        "0",
        "_"
    ],
    "SolidHeatCapacityCp": [
        {
            "eqno": "1",
            "A": "188730",
            "Tmin": "0",
            "Tmax": "637.15"
        },
        "J/kmol/K"
    ],
    "UniquacQP": [
        "4.936",
        "_"
    ],
    "ApiSrkS1": [
        "0.59245",
        "_"
    ]
}