{
    "CAS": "624-89-5",
    "LibraryIndex": "1813",
    "CompoundID": "Methyl ethyl sulfide",
    "StructureFormula": "CH3SC2H5",
    "Family": "42",
    "CriticalTemperature": [
        "533",
        "K"
    ],
    "CriticalPressure": [
        "4260000",
        "Pa"
    ],
    "CriticalVolume": [
        "0.26",
        "m3/kmol"
    ],
    "CriticalCompressibility": [
        "0.25",
        "_"
    ],
    "NormalBoilingPointTemperature": [
        "339.8",
        "K"
    ],
    "NormalMeltingPointTemperature": [
        "167.24",
        "K"
    ],
    "TriplePointTemperature": [
        "167.23",
        "K"
    ],
    "TriplePointPressure": [
        "0.224563",
        "Pa"
    ],
    "MolecularWeight": [
        "76.163",
        "kg/kmol"
    ],
    "LiquidVolumeAtNormalBoilingPoint": [
        "0.09102",
        "m3/kmol"
    ],
    "AcentricityFactor": [
        "0.208",
        "_"
    ],
    "SolubilityParameter": [
        "18010",
        "J0.5/m1.5"
    ],
    "DipoleMoment": [
        "5.34E-30",
        "Coulomb.m"
    ],
    "HeatOfFormation": [
        "-5.93E+07",
        "J/kmol"
    ],
    "GibbsEnergyOfFormation": [
        "1.19E+07",
        "J/kmol"
    ],
    "AbsEntropy": [
        "332100",
        "J/kmol/K"
    ],
    "HeatOfFusionAtMeltingPoint": [
        "9761000",
        "J/kmol"
    ],
    "HeatOfCombustion": [
        "-2.3531E+09",
        "J/kmol"
    ],
    "LiquidDensity": [
        {
            "eqno": "105",
            "A": "1.067",
            "B": "0.27102",
            "C": "533",
            "D": "0.29364",
            "Tmin": "167.23",
            "Tmax": "533"
        },
        "kmol/m3"
    ],
    "VaporPressure": [
        {
            "eqno": "101",
            "A": "84.44792",
            "B": "-6287.173",
            "C": "-9.497514",
            "D": "8.101952E-06",
            "E": "2",
            "Tmin": "167.23",
            "Tmax": "533"
        },
        "Pa"
    ],
    "HeatOfVaporization": [
        {
            "eqno": "106",
            "A": "5.1014E+07",
            "B": "1.045",
            "C": "-1.3834",
            "D": "1.1914",
            "E": "-0.41055",
            "Tmin": "167.23",
            "Tmax": "533"
        },
        "J/kmol"
    ],
    "LiquidHeatCapacityCp": [
        {
            "eqno": "16",
            "A": "128430",
            "B": "1340.2",
            "C": "-7.9347",
            "D": "0.062009",
            "E": "-0.00006022",
            "Tmin": "147.21",
            "Tmax": "339.8"
        },
        "J/kmol/K"
    ],
    "IdealGasHeatCapacityCp": [
        {
            "eqno": "16",
            "A": "65018",
            "B": "-602.45",
            "C": "12.269",
            "D": "0.00023938",
            "E": "-9.0299E-08",
            "Tmin": "273.16",
            "Tmax": "1500"
        },
        "J/kmol/K"
    ],
    "SecondVirialCoefficient": [
        {
            "eqno": "104",
            "A": "0.12321",
            "B": "-136.78",
            "C": "-37.817",
            "D": "13559",
            "E": "-38648",
            "Tmin": "266.5",
            "Tmax": "1500"
        },
        "m3/kmol"
    ],
    "LiquidViscosity": [
        {
            "eqno": "101",
            "A": "-11.137",
            "B": "871.68",
            "C": "0.048227",
            "D": "-1.2198E-07",
            "E": "2",
            "Tmin": "167.23",
            "Tmax": "339.8"
        },
        "Pa.s"
    ],
    "VaporViscosity": [
        {
            "eqno": "102",
            "A": "1.5396E-07",
            "B": "0.76205",
            "C": "156.76",
            "D": "-5273.3",
            "Tmin": "167.23",
            "Tmax": "1000"
        },
        "Pa.s"
    ],
    "LiquidThermalConductivity": [
        {
            "eqno": "16",
            "A": "-0.050172",
            "B": "-1.1207",
            "C": "-1.3208",
            "D": "-0.00082247",
            "E": "-0.0000013076",
            "Tmin": "167.23",
            "Tmax": "339.8"
        },
        "W/m/K"
    ],
    "VaporThermalConductivity": [
        {
            "eqno": "102",
            "A": "0.0034168",
            "B": "0.62158",
            "C": "1811.6",
            "D": "162180",
            "Tmin": "339.8",
            "Tmax": "1000"
        },
        "W/m/K"
    ],
    "RPPHeatCapacityCp": [
        {
            "eqno": "100",
            "A": "23414",
            "B": "242.67",
            "C": "0.067098",
            "D": "-0.00024012",
            "E": "1.1017E-07",
            "Tmin": "273",
            "Tmax": "1000"
        },
        "J/kmol/K"
    ],
    "RelativeStaticPermittivity": [
        {
            "eqno": "120",
            "A": "-4.77",
            "B": "-2825",
            "C": "-16.95",
            "Tmin": "270",
            "Tmax": "440"
        },
        "_"
    ],
    "AntoineVaporPressure": [
        {
            "eqno": "10",
            "A": "20.758",
            "B": "2662.3",
            "C": "-51.408",
            "Tmin": "321.07",
            "Tmax": "475.25"
        },
        "Pa"
    ],
    "LiquidViscosityRPS": [
        {
            "eqno": "12",
            "A": "-3.5661",
            "B": "-0.014639",
            "Tmin": "167.23",
            "Tmax": "339.8"
        },
        "Pa.s"
    ],
    "COSTALDVolume": [
        "0.257003",
        "m3/kmol"
    ],
    "DiameterLJ": [
        "6.286005E-10",
        "m"
    ],
    "EnergyLJ": [
        "236.7143",
        "K"
    ],
    "RacketParameter": [
        "0.25",
        "_"
    ],
    "FullerVolume": [
        "83.45",
        "_"
    ],
    "Parachor": [
        "0.0358611",
        "kg0.25.m3/s0.5/kmol"
    ],
    "SpecificGravity": [
        "0.84695",
        "_"
    ],
    "Charge": [
        "0",
        "_"
    ],
    "CostaldAcentricFactor": [
        "0.208",
        "_"
    ],
    "WilsonVolume": [
        "0.09102",
        "m3/kmol"
    ],
    "ChaoSeaderAcentricFactor": [
        "0.208",
        "_"
    ],
    "ChaoSeaderSolubilityParameter": [
        "18010",
        "J0.5/m1.5"
    ],
    "ChaoSeaderLiquidVolume": [
        "0.09102",
        "m3/kmol"
    ],
    "RadiusOfGyration": [
        "2.846E-10",
        "m"
    ],
    "VanDerWaalsVolume": [
        "0.04837",
        "m3/kmol"
    ],
    "VanDerWaalsArea": [
        "6.89E+08",
        "m2/kmol"
    ],
    "MatthiasCopemanC1": [
        "0.78709",
        "_"
    ],
    "SolidDensity": [
        {
            "eqno": "100",
            "A": "16.219",
            "B": "-0.012123",
            "C": "0",
            "D": "0",
            "E": "0",
            "Tmin": "66.89",
            "Tmax": "167.23"
        },
        "kmol/m3"
    ],
    "SurfaceTension": [
        {
            "eqno": "16",
            "A": "-0.010255",
            "B": "52.377",
            "C": "-3.2511",
            "D": "0.0012494",
            "E": "-0.0000074687",
            "Tmin": "167.23",
            "Tmax": "533"
        },
        "N/m"
    ],
    "MatthiasCopemanC2": [
        "0.02863",
        "_"
    ],
    "UniquacR": [
        "3.1885",
        "_"
    ],
    "UniquacQ": [
        "2.756",
        "_"
    ],
    "ApiSrkS2": [
        "0.141244",
        "_"
    ],
    "MatthiasCopemanC3": [
        "0.36781",
        "_"
    ],
    "SolidHeatCapacityCp": [
        {
            "eqno": "100",
            "A": "-19284",
            "B": "1609.7",
            "C": "-10.685",
            "D": "0.036633",
            "E": "-0.000038883",
            "Tmin": "17.79",
            "Tmax": "161.43"
        },
        "J/kmol/K"
    ],
    "UniquacQP": [
        "4.936",
        "_"
    ],
    "ApiSrkS1": [
        "0.529899",
        "_"
    ]
}