{
    "CAS": "625-25-2",
    "LibraryIndex": "20101",
    "CompoundID": "2-Methyl-2-Heptanol",
    "StructureFormula": "(CH3)2(OH)C(CH2)4CH3",
    "Family": "46",
    "CriticalTemperature": [
        "636.6534",
        "K"
    ],
    "CriticalPressure": [
        "2716180",
        "Pa"
    ],
    "CriticalVolume": [
        "0.48244",
        "m3/kmol"
    ],
    "CriticalCompressibility": [
        "0.247551",
        "_"
    ],
    "NormalBoilingPointTemperature": [
        "467.6976",
        "K"
    ],
    "NormalMeltingPointTemperature": [
        "185.78",
        "K"
    ],
    "TriplePointTemperature": [
        "185.77",
        "K"
    ],
    "TriplePointPressure": [
        "0.113498",
        "Pa"
    ],
    "MolecularWeight": [
        "130.2296",
        "kg/kmol"
    ],
    "LiquidVolumeAtNormalBoilingPoint": [
        "0.15788",
        "m3/kmol"
    ],
    "AcentricityFactor": [
        "0.723562",
        "_"
    ],
    "SolubilityParameter": [
        "17397.3",
        "J0.5/m1.5"
    ],
    "DipoleMoment": [
        "0",
        "Coulomb.m"
    ],
    "HeatOfFormation": [
        "-1.238045",
        "J/kmol"
    ],
    "GibbsEnergyOfFormation": [
        "-1.233886",
        "J/kmol"
    ],
    "AbsEntropy": [
        "1322185",
        "J/kmol/K"
    ],
    "HeatOfFusionAtMeltingPoint": [
        "0",
        "J/kmol"
    ],
    "HeatOfCombustion": [
        "-5.204435",
        "J/kmol"
    ],
    "LiquidDensity": [
        {
            "eqno": "105",
            "A": "0.53765",
            "B": "0.25476",
            "C": "567.01",
            "D": "0.28376",
            "Tmin": "185.77",
            "Tmax": "567"
        },
        "kmol/m3"
    ],
    "VaporPressure": [
        {
            "eqno": "200",
            "A": "-10.016",
            "B": "3.415",
            "C": "-6.8543",
            "D": "-4.7824",
            "E": "2716200",
            "Tmin": "327.39",
            "Tmax": "636.65"
        },
        "Pa"
    ],
    "HeatOfVaporization": [
        {
            "eqno": "106",
            "A": "7.9114E+07",
            "B": "0.38",
            "C": "0",
            "D": "0",
            "E": "0",
            "Tmin": "327.39",
            "Tmax": "636.65"
        },
        "J/kmol"
    ],
    "LiquidHeatCapacityCp": [
        {
            "eqno": "16",
            "A": "88257",
            "B": "855.11",
            "C": "3.1929",
            "D": "0.026245",
            "E": "-0.000022451",
            "Tmin": "250",
            "Tmax": "425.25"
        },
        "J/kmol/K"
    ],
    "IdealGasHeatCapacityCp": [
        {
            "eqno": "4",
            "A": "-23566",
            "B": "923.66",
            "C": "-0.6136",
            "D": "0.0001657",
            "Tmin": "190.996",
            "Tmax": "1500"
        },
        "J/kmol/K"
    ],
    "SecondVirialCoefficient": [
        {
            "eqno": "104",
            "A": "0.26129",
            "B": "-298.53",
            "C": "-61.563",
            "D": "-2356.6",
            "E": "-3540.3",
            "Tmin": "283.5",
            "Tmax": "1500"
        },
        "m3/kmol"
    ],
    "LiquidViscosity": [
        {
            "eqno": "101",
            "A": "-34.674",
            "B": "1655.3",
            "C": "3.8693",
            "D": "-0.0000085602",
            "E": "2",
            "Tmin": "173.15",
            "Tmax": "473.15"
        },
        "Pa.s"
    ],
    "VaporViscosity": [
        {
            "eqno": "2",
            "A": "3.6537E-07",
            "B": "1.4972E-08",
            "Tmin": "467.7",
            "Tmax": "1000"
        },
        "Pa.s"
    ],
    "LiquidThermalConductivity": [
        {
            "eqno": "16",
            "A": "-0.0714",
            "B": "1.7767",
            "C": "-1.4729",
            "D": "-0.00055517",
            "E": "-0.0000010492",
            "Tmin": "185.77",
            "Tmax": "392.37"
        },
        "W/m/K"
    ],
    "VaporThermalConductivity": [
        {
            "eqno": "102",
            "A": "0.00085233",
            "B": "0.71803",
            "C": "81.386",
            "D": "330930",
            "Tmin": "392.37",
            "Tmax": "1000"
        },
        "W/m/K"
    ],
    "RPPHeatCapacityCp": [
        {
            "eqno": "4",
            "A": "17097",
            "B": "807.28",
            "C": "-0.46601",
            "D": "0.00010374",
            "Tmin": "191",
            "Tmax": "1500"
        },
        "J/kmol/K"
    ],
    "RelativeStaticPermittivity": [
        {
            "eqno": "120",
            "A": "-4.258161",
            "B": "-2650",
            "C": "-15.9",
            "Tmin": "274.15",
            "Tmax": "444.15"
        },
        "_"
    ],
    "AntoineVaporPressure": [
        {
            "eqno": "10",
            "A": "20.944",
            "B": "3604",
            "C": "-85.025",
            "Tmin": "327.39",
            "Tmax": "636.65"
        },
        "Pa"
    ],
    "LiquidViscosityRPS": [
        {
            "eqno": "12",
            "A": "-4.0096",
            "B": "-0.012148",
            "Tmin": "173.15",
            "Tmax": "473.15"
        },
        "Pa.s"
    ],
    "COSTALDVolume": [
        "0.559662",
        "m3/kmol"
    ],
    "DiameterLJ": [
        "7.816203E-10",
        "m"
    ],
    "EnergyLJ": [
        "272.9022",
        "K"
    ],
    "RacketParameter": [
        "0.247551",
        "_"
    ],
    "FullerVolume": [
        "174.89",
        "_"
    ],
    "Parachor": [
        "0.0547474",
        "kg0.25.m3/s0.5/kmol"
    ],
    "SpecificGravity": [
        "0.82",
        "_"
    ],
    "Charge": [
        "0",
        "_"
    ],
    "CostaldAcentricFactor": [
        "0.723562",
        "_"
    ],
    "WilsonVolume": [
        "0.15788",
        "m3/kmol"
    ],
    "ChaoSeaderAcentricFactor": [
        "0.723562",
        "_"
    ],
    "ChaoSeaderSolubilityParameter": [
        "17397.3",
        "J0.5/m1.5"
    ],
    "ChaoSeaderLiquidVolume": [
        "0.15788",
        "m3/kmol"
    ],
    "RadiusOfGyration": [
        "4.51E-10",
        "m"
    ],
    "VanDerWaalsVolume": [
        "0.100431",
        "m3/kmol"
    ],
    "VanDerWaalsArea": [
        "1.476E+09",
        "m2/kmol"
    ],
    "MatthiasCopemanC1": [
        "1.09674",
        "_"
    ],
    "SolidDensity": [
        {
            "eqno": "100",
            "A": "9.1821",
            "B": "-0.0061784",
            "C": "0",
            "D": "0",
            "E": "0",
            "Tmin": "74.31",
            "Tmax": "185.77"
        },
        "kmol/m3"
    ],
    "SurfaceTension": [
        {
            "eqno": "16",
            "A": "-0.01103",
            "B": "38.104",
            "C": "-3.171",
            "D": "0.000054009",
            "E": "-0.0000046411",
            "Tmin": "185.77",
            "Tmax": "546.94"
        },
        "N/m"
    ],
    "MatthiasCopemanC2": [
        "0",
        "_"
    ],
    "UniquacR": [
        "6.6204",
        "_"
    ],
    "UniquacQ": [
        "5.904",
        "_"
    ],
    "ApiSrkS2": [
        "0.141244",
        "_"
    ],
    "MatthiasCopemanC3": [
        "0",
        "_"
    ],
    "SolidHeatCapacityCp": [
        {
            "eqno": "1",
            "A": "236620",
            "Tmin": "0",
            "Tmax": "636.65"
        },
        "J/kmol/K"
    ],
    "UniquacQP": [
        "5.634",
        "_"
    ],
    "ApiSrkS1": [
        "0.529899",
        "_"
    ]
}