{
    "CAS": "625-44-5",
    "LibraryIndex": "1410",
    "CompoundID": "Methyl isobutyl ether",
    "StructureFormula": "CH3OCH2CH(CH3)CH3",
    "Family": "61",
    "CriticalTemperature": [
        "497",
        "K"
    ],
    "CriticalPressure": [
        "3410000",
        "Pa"
    ],
    "CriticalVolume": [
        "0.329",
        "m3/kmol"
    ],
    "CriticalCompressibility": [
        "0.272",
        "_"
    ],
    "NormalBoilingPointTemperature": [
        "331.7",
        "K"
    ],
    "NormalMeltingPointTemperature": [
        "180",
        "K"
    ],
    "TriplePointTemperature": [
        "180",
        "K"
    ],
    "TriplePointPressure": [
        "0.0337504",
        "Pa"
    ],
    "MolecularWeight": [
        "88.1482",
        "kg/kmol"
    ],
    "LiquidVolumeAtNormalBoilingPoint": [
        "0.121242",
        "m3/kmol"
    ],
    "AcentricityFactor": [
        "0.307786",
        "_"
    ],
    "SolubilityParameter": [
        "15100",
        "J0.5/m1.5"
    ],
    "DipoleMoment": [
        "4.7E-30",
        "Coulomb.m"
    ],
    "HeatOfFormation": [
        "-2.66E+08",
        "J/kmol"
    ],
    "GibbsEnergyOfFormation": [
        "-1.07E+08",
        "J/kmol"
    ],
    "AbsEntropy": [
        "381000",
        "J/kmol/K"
    ],
    "HeatOfFusionAtMeltingPoint": [
        "0",
        "J/kmol"
    ],
    "HeatOfCombustion": [
        "-3.122E+09",
        "J/kmol"
    ],
    "LiquidDensity": [
        {
            "eqno": "105",
            "A": "0.83514",
            "B": "0.27544",
            "C": "497",
            "D": "0.27525",
            "Tmin": "150",
            "Tmax": "497"
        },
        "kmol/m3"
    ],
    "VaporPressure": [
        {
            "eqno": "101",
            "A": "67.83965",
            "B": "-5584.772",
            "C": "-6.90156",
            "D": "5.177794E-06",
            "E": "2",
            "Tmin": "150",
            "Tmax": "497"
        },
        "Pa"
    ],
    "HeatOfVaporization": [
        {
            "eqno": "106",
            "A": "4.281E+07",
            "B": "0.34436",
            "C": "0.050812",
            "D": "-0.029168",
            "E": "0.014527",
            "Tmin": "150",
            "Tmax": "497"
        },
        "J/kmol"
    ],
    "LiquidHeatCapacityCp": [
        {
            "eqno": "16",
            "A": "156890",
            "B": "481.87",
            "C": "3.1798",
            "D": "0.023292",
            "E": "-0.000015219",
            "Tmin": "298.15",
            "Tmax": "370"
        },
        "J/kmol/K"
    ],
    "IdealGasHeatCapacityCp": [
        {
            "eqno": "16",
            "A": "84480",
            "B": "-573.48",
            "C": "12.645",
            "D": "0.00036001",
            "E": "-1.6026E-07",
            "Tmin": "150",
            "Tmax": "1200"
        },
        "J/kmol/K"
    ],
    "SecondVirialCoefficient": [
        {
            "eqno": "104",
            "A": "0.20282",
            "B": "-209.23",
            "C": "-25.747",
            "D": "-401.68",
            "E": "-2768.2",
            "Tmin": "248.5",
            "Tmax": "1500"
        },
        "m3/kmol"
    ],
    "LiquidViscosity": [
        {
            "eqno": "101",
            "A": "-6.5049",
            "B": "776.05",
            "C": "-0.79051",
            "D": "0.0000029469",
            "E": "2",
            "Tmin": "150",
            "Tmax": "331.7"
        },
        "Pa.s"
    ],
    "VaporViscosity": [
        {
            "eqno": "102",
            "A": "2.7344E-07",
            "B": "0.65828",
            "C": "203.42",
            "D": "-5560.1",
            "Tmin": "150",
            "Tmax": "1000"
        },
        "Pa.s"
    ],
    "LiquidThermalConductivity": [
        {
            "eqno": "16",
            "A": "-0.1664",
            "B": "6.1773",
            "C": "-1.0308",
            "D": "-0.0004394",
            "E": "-9.9213E-07",
            "Tmin": "150",
            "Tmax": "390"
        },
        "W/m/K"
    ],
    "VaporThermalConductivity": [
        {
            "eqno": "102",
            "A": "0.00016088",
            "B": "0.97231",
            "C": "471.48",
            "D": "30281",
            "Tmin": "331.7",
            "Tmax": "1000"
        },
        "W/m/K"
    ],
    "RPPHeatCapacityCp": [
        {
            "eqno": "4",
            "A": "9865.2",
            "B": "481.23",
            "C": "-0.22823",
            "D": "0.000035281",
            "Tmin": "150",
            "Tmax": "1200"
        },
        "J/kmol/K"
    ],
    "RelativeStaticPermittivity": [
        {
            "eqno": "120",
            "A": "-2.907471",
            "B": "-1950",
            "C": "-11.7",
            "Tmin": "279.15",
            "Tmax": "449.15"
        },
        "_"
    ],
    "AntoineVaporPressure": [
        {
            "eqno": "10",
            "A": "21.621",
            "B": "3058",
            "C": "-30.223",
            "Tmin": "150",
            "Tmax": "497"
        },
        "Pa"
    ],
    "LiquidViscosityRPS": [
        {
            "eqno": "12",
            "A": "-3.2832",
            "B": "-0.016308",
            "Tmin": "150",
            "Tmax": "331.7"
        },
        "Pa.s"
    ],
    "COSTALDVolume": [
        "0.330209",
        "m3/kmol"
    ],
    "DiameterLJ": [
        "6.144609E-10",
        "m"
    ],
    "EnergyLJ": [
        "299.032",
        "K"
    ],
    "RacketParameter": [
        "0.272",
        "_"
    ],
    "FullerVolume": [
        "113.33",
        "_"
    ],
    "Parachor": [
        "0.0437951",
        "kg0.25.m3/s0.5/kmol"
    ],
    "SpecificGravity": [
        "0.738166",
        "_"
    ],
    "Charge": [
        "0",
        "_"
    ],
    "CostaldAcentricFactor": [
        "0.307786",
        "_"
    ],
    "WilsonVolume": [
        "0.121242",
        "m3/kmol"
    ],
    "ChaoSeaderAcentricFactor": [
        "0.307786",
        "_"
    ],
    "ChaoSeaderSolubilityParameter": [
        "15100",
        "J0.5/m1.5"
    ],
    "ChaoSeaderLiquidVolume": [
        "0.121242",
        "m3/kmol"
    ],
    "RadiusOfGyration": [
        "3.608E-10",
        "m"
    ],
    "VanDerWaalsVolume": [
        "0.06172",
        "m3/kmol"
    ],
    "VanDerWaalsArea": [
        "8.88E+08",
        "m2/kmol"
    ],
    "MatthiasCopemanC1": [
        "0.89511",
        "_"
    ],
    "SolidDensity": [
        {
            "eqno": "2",
            "A": "11.4",
            "B": "-2.3039E-16",
            "C": "0",
            "D": "0",
            "E": "0",
            "Tmin": "0",
            "Tmax": "9.5"
        },
        "kmol/m3"
    ],
    "SurfaceTension": [
        {
            "eqno": "16",
            "A": "-0.010965",
            "B": "36.367",
            "C": "-3.3144",
            "D": "0.00071793",
            "E": "-0.0000066621",
            "Tmin": "150",
            "Tmax": "497"
        },
        "N/m"
    ],
    "MatthiasCopemanC2": [
        "0.72462",
        "_"
    ],
    "UniquacR": [
        "4.0685",
        "_"
    ],
    "UniquacQ": [
        "3.552",
        "_"
    ],
    "ApiSrkS2": [
        "-0.033494",
        "_"
    ],
    "MatthiasCopemanC3": [
        "-1.6721",
        "_"
    ],
    "SolidHeatCapacityCp": [
        {
            "eqno": "1",
            "A": "158590",
            "Tmin": "0",
            "Tmax": "497"
        },
        "J/kmol/K"
    ],
    "UniquacQP": [
        "4.936",
        "_"
    ],
    "ApiSrkS1": [
        "1.025312",
        "_"
    ]
}