{
    "CAS": "629-97-0",
    "LibraryIndex": "75",
    "CompoundID": "N-docosane",
    "StructureFormula": "CH3(CH2)20CH3",
    "Family": "1",
    "CriticalTemperature": [
        "808.83",
        "K"
    ],
    "CriticalPressure": [
        "1339000",
        "Pa"
    ],
    "CriticalVolume": [
        "1.252",
        "m3/kmol"
    ],
    "CriticalCompressibility": [
        "0.209",
        "_"
    ],
    "NormalBoilingPointTemperature": [
        "641.75",
        "K"
    ],
    "NormalMeltingPointTemperature": [
        "318.25",
        "K"
    ],
    "TriplePointTemperature": [
        "317.15",
        "K"
    ],
    "TriplePointPressure": [
        "0.00359575",
        "Pa"
    ],
    "MolecularWeight": [
        "310.601",
        "kg/kmol"
    ],
    "LiquidVolumeAtNormalBoilingPoint": [
        "0.393226",
        "m3/kmol"
    ],
    "AcentricityFactor": [
        "0.973",
        "_"
    ],
    "SolubilityParameter": [
        "15800",
        "J0.5/m1.5"
    ],
    "DipoleMoment": [
        "0",
        "Coulomb.m"
    ],
    "HeatOfFormation": [
        "-4.985E+08",
        "J/kmol"
    ],
    "GibbsEnergyOfFormation": [
        "1.307E+08",
        "J/kmol"
    ],
    "AbsEntropy": [
        "1019000",
        "J/kmol/K"
    ],
    "HeatOfFusionAtMeltingPoint": [
        "4.8953E+07",
        "J/kmol"
    ],
    "HeatOfCombustion": [
        "-1.357E+10",
        "J/kmol"
    ],
    "LiquidDensity": [
        {
            "eqno": "105",
            "A": "0.00088994",
            "B": "0.017172",
            "C": "808.83",
            "D": "0.094179",
            "Tmin": "293.15",
            "Tmax": "787"
        },
        "kmol/m3"
    ],
    "VaporPressure": [
        {
            "eqno": "101",
            "A": "270.663",
            "B": "-22731.61",
            "C": "-35.81794",
            "D": "0.0000193308",
            "E": "2",
            "Tmin": "317.15",
            "Tmax": "787"
        },
        "Pa"
    ],
    "HeatOfVaporization": [
        {
            "eqno": "106",
            "A": "1.5383E+08",
            "B": "1.0955",
            "C": "-1.2067",
            "D": "1.3977",
            "E": "-0.85529",
            "Tmin": "317.15",
            "Tmax": "787"
        },
        "J/kmol"
    ],
    "LiquidHeatCapacityCp": [
        {
            "eqno": "16",
            "A": "94846",
            "B": "-114.81",
            "C": "13.466",
            "D": "0.000531",
            "E": "3.3532E-07",
            "Tmin": "317.15",
            "Tmax": "740"
        },
        "J/kmol/K"
    ],
    "IdealGasHeatCapacityCp": [
        {
            "eqno": "16",
            "A": "291820",
            "B": "-567.43",
            "C": "14.157",
            "D": "0.00012912",
            "E": "-4.9166E-08",
            "Tmin": "273",
            "Tmax": "1500"
        },
        "J/kmol/K"
    ],
    "SecondVirialCoefficient": [
        {
            "eqno": "104",
            "A": "0.76617",
            "B": "-496.25",
            "C": "-894.79",
            "D": "-1799300",
            "E": "3495100",
            "Tmin": "393.5",
            "Tmax": "1500"
        },
        "m3/kmol"
    ],
    "LiquidViscosity": [
        {
            "eqno": "101",
            "A": "-27.314",
            "B": "2728.1",
            "C": "2.3358",
            "D": "-0.0000013135",
            "E": "2",
            "Tmin": "317.15",
            "Tmax": "643.03"
        },
        "Pa.s"
    ],
    "VaporViscosity": [
        {
            "eqno": "102",
            "A": "2.8858E-07",
            "B": "0.62154",
            "C": "714.54",
            "D": "4582.3",
            "Tmin": "317.15",
            "Tmax": "1000"
        },
        "Pa.s"
    ],
    "LiquidThermalConductivity": [
        {
            "eqno": "16",
            "A": "-0.148",
            "B": "-22.716",
            "C": "-0.91136",
            "D": "-0.00059496",
            "E": "-3.4759E-07",
            "Tmin": "317.15",
            "Tmax": "641.75"
        },
        "W/m/K"
    ],
    "VaporThermalConductivity": [
        {
            "eqno": "102",
            "A": "-270.77",
            "B": "1.0546",
            "C": "-5.8977E+09",
            "D": "-1.0935E+11",
            "Tmin": "641.75",
            "Tmax": "1000"
        },
        "W/m/K"
    ],
    "RPPHeatCapacityCp": [
        {
            "eqno": "4",
            "A": "-16805",
            "B": "2089.4",
            "C": "-1.1669",
            "D": "0.00025179",
            "Tmin": "300",
            "Tmax": "1500"
        },
        "J/kmol/K"
    ],
    "RelativeStaticPermittivity": [
        {
            "eqno": "120",
            "A": "-1.153082",
            "B": "-1000",
            "C": "-6",
            "Tmin": "304.15",
            "Tmax": "474.15"
        },
        "_"
    ],
    "AntoineVaporPressure": [
        {
            "eqno": "10",
            "A": "21.952",
            "B": "5415.6",
            "C": "-122.39",
            "Tmin": "490.15",
            "Tmax": "712.81"
        },
        "Pa"
    ],
    "LiquidViscosityRPS": [
        {
            "eqno": "12",
            "A": "-2.7996",
            "B": "-0.0093671",
            "Tmin": "317.15",
            "Tmax": "643.03"
        },
        "Pa.s"
    ],
    "COSTALDVolume": [
        "1.567299",
        "m3/kmol"
    ],
    "DiameterLJ": [
        "1.316045E-09",
        "m"
    ],
    "EnergyLJ": [
        "188.4938",
        "K"
    ],
    "RacketParameter": [
        "0.209",
        "_"
    ],
    "FullerVolume": [
        "456.06",
        "_"
    ],
    "Parachor": [
        "0.167898",
        "kg0.25.m3/s0.5/kmol"
    ],
    "SpecificGravity": [
        "0.795185",
        "_"
    ],
    "Charge": [
        "0",
        "_"
    ],
    "CostaldAcentricFactor": [
        "0.973",
        "_"
    ],
    "WilsonVolume": [
        "0.393226",
        "m3/kmol"
    ],
    "ChaoSeaderAcentricFactor": [
        "0.973",
        "_"
    ],
    "ChaoSeaderSolubilityParameter": [
        "15800",
        "J0.5/m1.5"
    ],
    "ChaoSeaderLiquidVolume": [
        "0.393226",
        "m3/kmol"
    ],
    "RadiusOfGyration": [
        "8.799E-10",
        "m"
    ],
    "VanDerWaalsVolume": [
        "0.2319",
        "m3/kmol"
    ],
    "VanDerWaalsArea": [
        "3.124E+09",
        "m2/kmol"
    ],
    "MatthiasCopemanC1": [
        "1.744627",
        "_"
    ],
    "SolidDensity": [
        {
            "eqno": "100",
            "A": "3.2062",
            "B": "-0.0012637",
            "C": "0",
            "D": "0",
            "E": "0",
            "Tmin": "126.86",
            "Tmax": "317.15"
        },
        "kmol/m3"
    ],
    "SurfaceTension": [
        {
            "eqno": "16",
            "A": "-0.03075",
            "B": "-73.068",
            "C": "-1.9074",
            "D": "-0.002422",
            "E": "7.0531E-07",
            "Tmin": "317.15",
            "Tmax": "787"
        },
        "N/m"
    ],
    "MatthiasCopemanC2": [
        "0",
        "_"
    ],
    "UniquacR": [
        "15.2902",
        "_"
    ],
    "UniquacQ": [
        "12.496",
        "_"
    ],
    "ApiSrkS2": [
        "-0.003612",
        "_"
    ],
    "MatthiasCopemanC3": [
        "0",
        "_"
    ],
    "SolidHeatCapacityCp": [
        {
            "eqno": "100",
            "A": "22469",
            "B": "2585.1",
            "C": "-4.4911",
            "D": "0.010078",
            "E": "-0.000009896",
            "Tmin": "50",
            "Tmax": "317.15"
        },
        "J/kmol/K"
    ],
    "UniquacQP": [
        "4.936",
        "_"
    ],
    "ApiSrkS1": [
        "0.59245",
        "_"
    ]
}