{
    "CAS": "629-78-7",
    "LibraryIndex": "69",
    "CompoundID": "N-heptadecane",
    "StructureFormula": "CH3(CH2)15CH3",
    "Family": "1",
    "CriticalTemperature": [
        "736",
        "K"
    ],
    "CriticalPressure": [
        "1340000",
        "Pa"
    ],
    "CriticalVolume": [
        "1.103",
        "m3/kmol"
    ],
    "CriticalCompressibility": [
        "0.242",
        "_"
    ],
    "NormalBoilingPointTemperature": [
        "574.56",
        "K"
    ],
    "NormalMeltingPointTemperature": [
        "295.127",
        "K"
    ],
    "TriplePointTemperature": [
        "295.134",
        "K"
    ],
    "TriplePointPressure": [
        "0.0465559",
        "Pa"
    ],
    "MolecularWeight": [
        "240.473",
        "kg/kmol"
    ],
    "LiquidVolumeAtNormalBoilingPoint": [
        "0.31045",
        "m3/kmol"
    ],
    "AcentricityFactor": [
        "0.762",
        "_"
    ],
    "SolubilityParameter": [
        "16100",
        "J0.5/m1.5"
    ],
    "DipoleMoment": [
        "0",
        "Coulomb.m"
    ],
    "HeatOfFormation": [
        "-3.939E+08",
        "J/kmol"
    ],
    "GibbsEnergyOfFormation": [
        "9.083E+07",
        "J/kmol"
    ],
    "AbsEntropy": [
        "820230",
        "J/kmol/K"
    ],
    "HeatOfFusionAtMeltingPoint": [
        "4.0459E+07",
        "J/kmol"
    ],
    "HeatOfCombustion": [
        "-1.05618E+10",
        "J/kmol"
    ],
    "LiquidDensity": [
        {
            "eqno": "105",
            "A": "0.1972",
            "B": "0.22446",
            "C": "736",
            "D": "0.27261",
            "Tmin": "273.15",
            "Tmax": "736"
        },
        "kmol/m3"
    ],
    "VaporPressure": [
        {
            "eqno": "101",
            "A": "230.4768",
            "B": "-19512.15",
            "C": "-29.73776",
            "D": "0.0000119109",
            "E": "2",
            "Tmin": "295.13",
            "Tmax": "736"
        },
        "Pa"
    ],
    "HeatOfVaporization": [
        {
            "eqno": "106",
            "A": "1.1837E+08",
            "B": "0.45937",
            "C": "1.0501",
            "D": "-1.8353",
            "E": "0.77357",
            "Tmin": "295.13",
            "Tmax": "736"
        },
        "J/kmol"
    ],
    "LiquidHeatCapacityCp": [
        {
            "eqno": "16",
            "A": "341660",
            "B": "-48.077",
            "C": "11.234",
            "D": "0.0041437",
            "E": "-0.0000017269",
            "Tmin": "295",
            "Tmax": "575.3"
        },
        "J/kmol/K"
    ],
    "IdealGasHeatCapacityCp": [
        {
            "eqno": "16",
            "A": "247870",
            "B": "-663.74",
            "C": "14.166",
            "D": "-0.00017722",
            "E": "5.7891E-08",
            "Tmin": "200",
            "Tmax": "1500"
        },
        "J/kmol/K"
    ],
    "SecondVirialCoefficient": [
        {
            "eqno": "104",
            "A": "0.44015",
            "B": "-297.46",
            "C": "-550.48",
            "D": "-414510",
            "E": "499680",
            "Tmin": "366.69",
            "Tmax": "1686.69"
        },
        "m3/kmol"
    ],
    "LiquidViscosity": [
        {
            "eqno": "101",
            "A": "-77.193",
            "B": "4597",
            "C": "9.9892",
            "D": "-0.0000084702",
            "E": "2",
            "Tmin": "293.15",
            "Tmax": "588.15"
        },
        "Pa.s"
    ],
    "VaporViscosity": [
        {
            "eqno": "102",
            "A": "3.2694E-07",
            "B": "0.5961",
            "C": "448.22",
            "D": "45523",
            "Tmin": "295.13",
            "Tmax": "1000"
        },
        "Pa.s"
    ],
    "LiquidThermalConductivity": [
        {
            "eqno": "16",
            "A": "-0.015537",
            "B": "-239.33",
            "C": "0.042685",
            "D": "-0.0038367",
            "E": "8.6547E-07",
            "Tmin": "295.13",
            "Tmax": "575.3"
        },
        "W/m/K"
    ],
    "VaporThermalConductivity": [
        {
            "eqno": "102",
            "A": "-115.33",
            "B": "1.0524",
            "C": "-2.1515E+09",
            "D": "-1.3137E+10",
            "Tmin": "575.3",
            "Tmax": "1000"
        },
        "W/m/K"
    ],
    "RPPHeatCapacityCp": [
        {
            "eqno": "100",
            "A": "197990",
            "B": "-76.576",
            "C": "3.7692",
            "D": "-0.0050387",
            "E": "0.0000020333",
            "Tmin": "200",
            "Tmax": "1000"
        },
        "J/kmol/K"
    ],
    "RelativeStaticPermittivity": [
        {
            "eqno": "120",
            "A": "6.679602",
            "B": "-11091.2",
            "C": "-21.74851",
            "Tmin": "288",
            "Tmax": "729"
        },
        "_"
    ],
    "AntoineVaporPressure": [
        {
            "eqno": "10",
            "A": "21.204",
            "B": "4403.1",
            "C": "-120.35",
            "Tmin": "448.16",
            "Tmax": "650"
        },
        "Pa"
    ],
    "LiquidViscosityRPS": [
        {
            "eqno": "12",
            "A": "-3.0515",
            "B": "-0.0099131",
            "Tmin": "293.15",
            "Tmax": "588.15"
        },
        "Pa.s"
    ],
    "COSTALDVolume": [
        "1.149922",
        "m3/kmol"
    ],
    "DiameterLJ": [
        "1.058091E-09",
        "m"
    ],
    "EnergyLJ": [
        "290.7544",
        "K"
    ],
    "RacketParameter": [
        "0.242",
        "_"
    ],
    "FullerVolume": [
        "353.46",
        "_"
    ],
    "Parachor": [
        "0.122765",
        "kg0.25.m3/s0.5/kmol"
    ],
    "SpecificGravity": [
        "0.779388",
        "_"
    ],
    "Charge": [
        "0",
        "_"
    ],
    "CostaldAcentricFactor": [
        "0.762",
        "_"
    ],
    "WilsonVolume": [
        "0.31045",
        "m3/kmol"
    ],
    "ChaoSeaderAcentricFactor": [
        "0.762",
        "_"
    ],
    "ChaoSeaderSolubilityParameter": [
        "16100",
        "J0.5/m1.5"
    ],
    "ChaoSeaderLiquidVolume": [
        "0.31045",
        "m3/kmol"
    ],
    "RadiusOfGyration": [
        "7.355E-10",
        "m"
    ],
    "VanDerWaalsVolume": [
        "0.1808",
        "m3/kmol"
    ],
    "VanDerWaalsArea": [
        "2.449E+09",
        "m2/kmol"
    ],
    "MatthiasCopemanC1": [
        "1.7889",
        "_"
    ],
    "SolidDensity": [
        {
            "eqno": "2",
            "A": "4.0831",
            "B": "-0.001532",
            "C": "0",
            "D": "0",
            "E": "0",
            "Tmin": "118.05",
            "Tmax": "295.13"
        },
        "kmol/m3"
    ],
    "SurfaceTension": [
        {
            "eqno": "16",
            "A": "-0.038127",
            "B": "-105.48",
            "C": "-1.5195",
            "D": "-0.0033062",
            "E": "0.000001514",
            "Tmin": "293.15",
            "Tmax": "736"
        },
        "N/m"
    ],
    "MatthiasCopemanC2": [
        "-1.9601",
        "_"
    ],
    "UniquacR": [
        "11.9182",
        "_"
    ],
    "UniquacQ": [
        "9.796",
        "_"
    ],
    "ApiSrkS2": [
        "0.02642",
        "_"
    ],
    "MatthiasCopemanC3": [
        "4.6926",
        "_"
    ],
    "SolidHeatCapacityCp": [
        {
            "eqno": "100",
            "A": "-59944",
            "B": "3834.8",
            "C": "-16.853",
            "D": "0.031845",
            "E": "0.0000086344",
            "Tmin": "30.46",
            "Tmax": "270.7"
        },
        "J/kmol/K"
    ],
    "UniquacQP": [
        "4.936",
        "_"
    ],
    "ApiSrkS1": [
        "0.59245",
        "_"
    ]
}