{
    "CAS": "638-67-5",
    "LibraryIndex": "76",
    "CompoundID": "N-tricosane",
    "StructureFormula": "CH3(CH2)21CH3",
    "Family": "1",
    "CriticalTemperature": [
        "818.25",
        "K"
    ],
    "CriticalPressure": [
        "1290000",
        "Pa"
    ],
    "CriticalVolume": [
        "1.307",
        "m3/kmol"
    ],
    "CriticalCompressibility": [
        "0.208",
        "_"
    ],
    "NormalBoilingPointTemperature": [
        "653.15",
        "K"
    ],
    "NormalMeltingPointTemperature": [
        "320.95",
        "K"
    ],
    "TriplePointTemperature": [
        "320.65",
        "K"
    ],
    "TriplePointPressure": [
        "0.00186855",
        "Pa"
    ],
    "MolecularWeight": [
        "324.627",
        "kg/kmol"
    ],
    "LiquidVolumeAtNormalBoilingPoint": [
        "0.4074",
        "m3/kmol"
    ],
    "AcentricityFactor": [
        "1.02617",
        "_"
    ],
    "SolubilityParameter": [
        "15800",
        "J0.5/m1.5"
    ],
    "DipoleMoment": [
        "0",
        "Coulomb.m"
    ],
    "HeatOfFormation": [
        "-5.192E+08",
        "J/kmol"
    ],
    "GibbsEnergyOfFormation": [
        "1.39E+08",
        "J/kmol"
    ],
    "AbsEntropy": [
        "1064000",
        "J/kmol/K"
    ],
    "HeatOfFusionAtMeltingPoint": [
        "5.3974E+07",
        "J/kmol"
    ],
    "HeatOfCombustion": [
        "-1.417E+10",
        "J/kmol"
    ],
    "LiquidDensity": [
        {
            "eqno": "105",
            "A": "0.048866",
            "B": "0.12922",
            "C": "818.25",
            "D": "0.20531",
            "Tmin": "273.15",
            "Tmax": "770.98"
        },
        "kmol/m3"
    ],
    "VaporPressure": [
        {
            "eqno": "101",
            "A": "-22.08031",
            "B": "-9534.111",
            "C": "8.274049",
            "D": "-0.0000125255",
            "E": "2",
            "Tmin": "320.65",
            "Tmax": "796"
        },
        "Pa"
    ],
    "HeatOfVaporization": [
        {
            "eqno": "106",
            "A": "1.6434E+08",
            "B": "1.0068",
            "C": "-0.55169",
            "D": "0.31454",
            "E": "-0.3244",
            "Tmin": "320.65",
            "Tmax": "796"
        },
        "J/kmol"
    ],
    "LiquidHeatCapacityCp": [
        {
            "eqno": "16",
            "A": "-58655",
            "B": "-99.845",
            "C": "13.754",
            "D": "0.00030768",
            "E": "3.7705E-07",
            "Tmin": "320.65",
            "Tmax": "750"
        },
        "J/kmol/K"
    ],
    "IdealGasHeatCapacityCp": [
        {
            "eqno": "16",
            "A": "304710",
            "B": "-567.01",
            "C": "14.201",
            "D": "0.00012862",
            "E": "-4.8999E-08",
            "Tmin": "273",
            "Tmax": "1500"
        },
        "J/kmol/K"
    ],
    "SecondVirialCoefficient": [
        {
            "eqno": "104",
            "A": "0.80211",
            "B": "-472.21",
            "C": "-1000",
            "D": "-2157000",
            "E": "4225100",
            "Tmin": "398",
            "Tmax": "1500"
        },
        "m3/kmol"
    ],
    "LiquidViscosity": [
        {
            "eqno": "101",
            "A": "-8.8394",
            "B": "1949.8",
            "C": "-0.47088",
            "D": "0.0000010446",
            "E": "2",
            "Tmin": "320.65",
            "Tmax": "654.75"
        },
        "Pa.s"
    ],
    "VaporViscosity": [
        {
            "eqno": "102",
            "A": "2.8518E-07",
            "B": "0.61933",
            "C": "704.01",
            "D": "6598.3",
            "Tmin": "320.65",
            "Tmax": "1000"
        },
        "Pa.s"
    ],
    "LiquidThermalConductivity": [
        {
            "eqno": "16",
            "A": "-0.18218",
            "B": "0.19147",
            "C": "-0.94906",
            "D": "-0.00035642",
            "E": "-3.5025E-07",
            "Tmin": "320.65",
            "Tmax": "653.35"
        },
        "W/m/K"
    ],
    "VaporThermalConductivity": [
        {
            "eqno": "102",
            "A": "-232.83",
            "B": "1.0566",
            "C": "-5.2747E+09",
            "D": "-9.8604E+10",
            "Tmin": "653.35",
            "Tmax": "1000"
        },
        "W/m/K"
    ],
    "RPPHeatCapacityCp": [
        {
            "eqno": "4",
            "A": "-17575",
            "B": "2183.7",
            "C": "-1.2207",
            "D": "0.00026363",
            "Tmin": "300",
            "Tmax": "1500"
        },
        "J/kmol/K"
    ],
    "RelativeStaticPermittivity": [
        {
            "eqno": "120",
            "A": "-1.153082",
            "B": "-1000",
            "C": "-6",
            "Tmin": "304.15",
            "Tmax": "474.15"
        },
        "_"
    ],
    "AntoineVaporPressure": [
        {
            "eqno": "10",
            "A": "21.773",
            "B": "5247.8",
            "C": "-140.8",
            "Tmin": "493.15",
            "Tmax": "720.94"
        },
        "Pa"
    ],
    "LiquidViscosityRPS": [
        {
            "eqno": "12",
            "A": "-2.8318",
            "B": "-0.0091216",
            "Tmin": "320.65",
            "Tmax": "654.75"
        },
        "Pa.s"
    ],
    "COSTALDVolume": [
        "1.644437",
        "m3/kmol"
    ],
    "DiameterLJ": [
        "1.342746E-09",
        "m"
    ],
    "EnergyLJ": [
        "187.4249",
        "K"
    ],
    "RacketParameter": [
        "0.208",
        "_"
    ],
    "FullerVolume": [
        "476.58",
        "_"
    ],
    "Parachor": [
        "0.17165",
        "kg0.25.m3/s0.5/kmol"
    ],
    "SpecificGravity": [
        "0.798403",
        "_"
    ],
    "Charge": [
        "0",
        "_"
    ],
    "CostaldAcentricFactor": [
        "1.02617",
        "_"
    ],
    "WilsonVolume": [
        "0.4074",
        "m3/kmol"
    ],
    "ChaoSeaderAcentricFactor": [
        "1.02617",
        "_"
    ],
    "ChaoSeaderSolubilityParameter": [
        "15800",
        "J0.5/m1.5"
    ],
    "ChaoSeaderLiquidVolume": [
        "0.4074",
        "m3/kmol"
    ],
    "RadiusOfGyration": [
        "9.065E-10",
        "m"
    ],
    "VanDerWaalsVolume": [
        "0.2422",
        "m3/kmol"
    ],
    "VanDerWaalsArea": [
        "3.259E+09",
        "m2/kmol"
    ],
    "MatthiasCopemanC1": [
        "1.8",
        "_"
    ],
    "SolidDensity": [
        {
            "eqno": "100",
            "A": "3.0671",
            "B": "-0.0011957",
            "C": "0",
            "D": "0",
            "E": "0",
            "Tmin": "128.26",
            "Tmax": "320.65"
        },
        "kmol/m3"
    ],
    "SurfaceTension": [
        {
            "eqno": "16",
            "A": "-0.03252",
            "B": "-86.948",
            "C": "-1.7797",
            "D": "-0.0026525",
            "E": "9.2007E-07",
            "Tmin": "320.65",
            "Tmax": "796"
        },
        "N/m"
    ],
    "MatthiasCopemanC2": [
        "0",
        "_"
    ],
    "UniquacR": [
        "15.9646",
        "_"
    ],
    "UniquacQ": [
        "13.036",
        "_"
    ],
    "ApiSrkS2": [
        "-0.003612",
        "_"
    ],
    "MatthiasCopemanC3": [
        "0",
        "_"
    ],
    "SolidHeatCapacityCp": [
        {
            "eqno": "102",
            "A": "6630",
            "B": "0.79267",
            "C": "0",
            "D": "0",
            "Tmin": "50",
            "Tmax": "320.65"
        },
        "J/kmol/K"
    ],
    "UniquacQP": [
        "4.936",
        "_"
    ],
    "ApiSrkS1": [
        "0.59245",
        "_"
    ]
}