{
    "CAS": "638-04-0",
    "LibraryIndex": "144",
    "CompoundID": "Cis-1,3-dimethylcyclohexane",
    "StructureFormula": "-CH(CH3)CH2CH(CH3)(CH2)3-",
    "Family": "7",
    "CriticalTemperature": [
        "591.15",
        "K"
    ],
    "CriticalPressure": [
        "2938430",
        "Pa"
    ],
    "CriticalVolume": [
        "0.45",
        "m3/kmol"
    ],
    "CriticalCompressibility": [
        "0.269",
        "_"
    ],
    "NormalBoilingPointTemperature": [
        "393.24",
        "K"
    ],
    "NormalMeltingPointTemperature": [
        "197.61",
        "K"
    ],
    "TriplePointTemperature": [
        "197.58",
        "K"
    ],
    "TriplePointPressure": [
        "0.562747",
        "Pa"
    ],
    "MolecularWeight": [
        "112.213",
        "kg/kmol"
    ],
    "LiquidVolumeAtNormalBoilingPoint": [
        "0.147281",
        "m3/kmol"
    ],
    "AcentricityFactor": [
        "0.2414",
        "_"
    ],
    "SolubilityParameter": [
        "15640",
        "J0.5/m1.5"
    ],
    "DipoleMoment": [
        "0",
        "Coulomb.m"
    ],
    "HeatOfFormation": [
        "-1.84765E+08",
        "J/kmol"
    ],
    "GibbsEnergyOfFormation": [
        "2.98319E+07",
        "J/kmol"
    ],
    "AbsEntropy": [
        "370451",
        "J/kmol/K"
    ],
    "HeatOfFusionAtMeltingPoint": [
        "1.08211E+07",
        "J/kmol"
    ],
    "HeatOfCombustion": [
        "-4.85972E+09",
        "J/kmol"
    ],
    "LiquidDensity": [
        {
            "eqno": "105",
            "A": "0.56146",
            "B": "0.25431",
            "C": "591.15",
            "D": "0.28196",
            "Tmin": "197.58",
            "Tmax": "591.15"
        },
        "kmol/m3"
    ],
    "VaporPressure": [
        {
            "eqno": "101",
            "A": "80.304",
            "B": "-6952.9",
            "C": "-8.6838",
            "D": "0.000005071",
            "E": "2",
            "Tmin": "197.58",
            "Tmax": "591.15"
        },
        "Pa"
    ],
    "HeatOfVaporization": [
        {
            "eqno": "106",
            "A": "6.8345E+07",
            "B": "2.0984",
            "C": "-4.3187",
            "D": "4.4054",
            "E": "-1.7047",
            "Tmin": "197.58",
            "Tmax": "591.15"
        },
        "J/kmol"
    ],
    "LiquidHeatCapacityCp": [
        {
            "eqno": "16",
            "A": "91638",
            "B": "67.51",
            "C": "9.6813",
            "D": "0.0069535",
            "E": "-0.0000034278",
            "Tmin": "197.58",
            "Tmax": "393.24"
        },
        "J/kmol/K"
    ],
    "IdealGasHeatCapacityCp": [
        {
            "eqno": "16",
            "A": "100690",
            "B": "-836.69",
            "C": "13.908",
            "D": "-0.00051206",
            "E": "1.3582E-07",
            "Tmin": "200",
            "Tmax": "1500"
        },
        "J/kmol/K"
    ],
    "SecondVirialCoefficient": [
        {
            "eqno": "104",
            "A": "0.24082",
            "B": "-317.36",
            "C": "-39.085",
            "D": "-11376",
            "E": "30465",
            "Tmin": "295.58",
            "Tmax": "2000"
        },
        "m3/kmol"
    ],
    "LiquidViscosity": [
        {
            "eqno": "101",
            "A": "-19.068",
            "B": "1358.3",
            "C": "1.3526",
            "D": "-0.0000038202",
            "E": "2",
            "Tmin": "197.58",
            "Tmax": "393.24"
        },
        "Pa.s"
    ],
    "VaporViscosity": [
        {
            "eqno": "102",
            "A": "0.0000012434",
            "B": "0.44274",
            "C": "472.75",
            "D": "75.213",
            "Tmin": "393.24",
            "Tmax": "1000"
        },
        "Pa.s"
    ],
    "LiquidThermalConductivity": [
        {
            "eqno": "16",
            "A": "-0.04198",
            "B": "-3.8682",
            "C": "-1.5284",
            "D": "-0.00074068",
            "E": "-0.0000011056",
            "Tmin": "197.58",
            "Tmax": "393.24"
        },
        "W/m/K"
    ],
    "VaporThermalConductivity": [
        {
            "eqno": "102",
            "A": "0.015195",
            "B": "0.35206",
            "C": "-46.167",
            "D": "870770",
            "Tmin": "393.24",
            "Tmax": "1000"
        },
        "W/m/K"
    ],
    "RPPHeatCapacityCp": [
        {
            "eqno": "4",
            "A": "-42404",
            "B": "786.83",
            "C": "-0.37657",
            "D": "0.000059811",
            "Tmin": "200",
            "Tmax": "1500"
        },
        "J/kmol/K"
    ],
    "RelativeStaticPermittivity": [
        {
            "eqno": "120",
            "A": "-1.5046",
            "B": "-1050",
            "C": "-6.3",
            "Tmin": "278.5945",
            "Tmax": "448.5945"
        },
        "_"
    ],
    "AntoineVaporPressure": [
        {
            "eqno": "10",
            "A": "20.487",
            "B": "2985.3",
            "C": "-60.096",
            "Tmin": "356.47",
            "Tmax": "529.01"
        },
        "Pa"
    ],
    "LiquidViscosityRPS": [
        {
            "eqno": "12",
            "A": "-2.696",
            "B": "-0.014492",
            "Tmin": "197.58",
            "Tmax": "393.24"
        },
        "Pa.s"
    ],
    "COSTALDVolume": [
        "0.438832",
        "m3/kmol"
    ],
    "DiameterLJ": [
        "6.912149E-10",
        "m"
    ],
    "EnergyLJ": [
        "341.7583",
        "K"
    ],
    "RacketParameter": [
        "0.269",
        "_"
    ],
    "FullerVolume": [
        "164.16",
        "_"
    ],
    "Parachor": [
        "0.0570895",
        "kg0.25.m3/s0.5/kmol"
    ],
    "SpecificGravity": [
        "0.770374",
        "_"
    ],
    "Charge": [
        "0",
        "_"
    ],
    "CostaldAcentricFactor": [
        "0.2414",
        "_"
    ],
    "WilsonVolume": [
        "0.147281",
        "m3/kmol"
    ],
    "ChaoSeaderAcentricFactor": [
        "0.2414",
        "_"
    ],
    "ChaoSeaderSolubilityParameter": [
        "15640",
        "J0.5/m1.5"
    ],
    "ChaoSeaderLiquidVolume": [
        "0.147281",
        "m3/kmol"
    ],
    "RadiusOfGyration": [
        "3.972E-10",
        "m"
    ],
    "VanDerWaalsVolume": [
        "0.08068",
        "m3/kmol"
    ],
    "VanDerWaalsArea": [
        "1.021E+09",
        "m2/kmol"
    ],
    "MatthiasCopemanC1": [
        "0.91108",
        "_"
    ],
    "SolidDensity": [
        {
            "eqno": "2",
            "A": "9.4975",
            "B": "-0.0053365",
            "C": "0",
            "D": "0",
            "E": "0",
            "Tmin": "79.03",
            "Tmax": "197.58"
        },
        "kmol/m3"
    ],
    "SurfaceTension": [
        {
            "eqno": "16",
            "A": "-0.0081816",
            "B": "58.739",
            "C": "-3.5009",
            "D": "0.0012572",
            "E": "-0.0000062077",
            "Tmin": "197.58",
            "Tmax": "591.15"
        },
        "N/m"
    ],
    "MatthiasCopemanC2": [
        "0",
        "_"
    ],
    "UniquacR": [
        "5.3936",
        "_"
    ],
    "UniquacQ": [
        "4.312",
        "_"
    ],
    "ApiSrkS2": [
        "0.010622",
        "_"
    ],
    "MatthiasCopemanC3": [
        "0",
        "_"
    ],
    "SolidHeatCapacityCp": [
        {
            "eqno": "100",
            "A": "-12749",
            "B": "1536.3",
            "C": "-10.653",
            "D": "0.050633",
            "E": "-0.000085289",
            "Tmin": "11.75",
            "Tmax": "182.14"
        },
        "J/kmol/K"
    ],
    "UniquacQP": [
        "4.936",
        "_"
    ],
    "ApiSrkS1": [
        "0.59245",
        "_"
    ]
}