{
    "CAS": "674-76-0",
    "LibraryIndex": "228",
    "CompoundID": "4-methyl-trans-2-pentene",
    "StructureFormula": "CH3CHCHCH(CH3)2",
    "Family": "11",
    "CriticalTemperature": [
        "501",
        "K"
    ],
    "CriticalPressure": [
        "3220000",
        "Pa"
    ],
    "CriticalVolume": [
        "0.346",
        "m3/kmol"
    ],
    "CriticalCompressibility": [
        "0.267",
        "_"
    ],
    "NormalBoilingPointTemperature": [
        "331.76",
        "K"
    ],
    "NormalMeltingPointTemperature": [
        "132.36",
        "K"
    ],
    "TriplePointTemperature": [
        "132.35",
        "K"
    ],
    "TriplePointPressure": [
        "0.000344783",
        "Pa"
    ],
    "MolecularWeight": [
        "84.1595",
        "kg/kmol"
    ],
    "LiquidVolumeAtNormalBoilingPoint": [
        "0.126739",
        "m3/kmol"
    ],
    "AcentricityFactor": [
        "0.255237",
        "_"
    ],
    "SolubilityParameter": [
        "14730",
        "J0.5/m1.5"
    ],
    "DipoleMoment": [
        "3.63E-31",
        "Coulomb.m"
    ],
    "HeatOfFormation": [
        "-5.43501E+07",
        "J/kmol"
    ],
    "GibbsEnergyOfFormation": [
        "7.43497E+07",
        "J/kmol"
    ],
    "AbsEntropy": [
        "368390",
        "J/kmol/K"
    ],
    "HeatOfFusionAtMeltingPoint": [
        "7154640",
        "J/kmol"
    ],
    "HeatOfCombustion": [
        "-3.7205E+09",
        "J/kmol"
    ],
    "LiquidDensity": [
        {
            "eqno": "105",
            "A": "0.77321",
            "B": "0.26966",
            "C": "501",
            "D": "0.28578",
            "Tmin": "132.35",
            "Tmax": "501"
        },
        "kmol/m3"
    ],
    "VaporPressure": [
        {
            "eqno": "101",
            "A": "81.691",
            "B": "-5972.8",
            "C": "-9.1408",
            "D": "0.0000081285",
            "E": "2",
            "Tmin": "132.35",
            "Tmax": "501"
        },
        "Pa"
    ],
    "HeatOfVaporization": [
        {
            "eqno": "106",
            "A": "5.3985E+07",
            "B": "1.4966",
            "C": "-2.4784",
            "D": "2.2857",
            "E": "-0.85991",
            "Tmin": "132.35",
            "Tmax": "501"
        },
        "J/kmol"
    ],
    "LiquidHeatCapacityCp": [
        {
            "eqno": "16",
            "A": "22279",
            "B": "6.5061",
            "C": "10.859",
            "D": "0.0058182",
            "E": "-0.000006387",
            "Tmin": "132.35",
            "Tmax": "331.75"
        },
        "J/kmol/K"
    ],
    "IdealGasHeatCapacityCp": [
        {
            "eqno": "16",
            "A": "95377",
            "B": "-622.83",
            "C": "12.814",
            "D": "0.000074545",
            "E": "-3.6318E-08",
            "Tmin": "200",
            "Tmax": "1500"
        },
        "J/kmol/K"
    ],
    "SecondVirialCoefficient": [
        {
            "eqno": "104",
            "A": "0.19736",
            "B": "-224.61",
            "C": "-21.903",
            "D": "488.25",
            "E": "-2649.6",
            "Tmin": "250.5",
            "Tmax": "2000"
        },
        "m3/kmol"
    ],
    "LiquidViscosity": [
        {
            "eqno": "101",
            "A": "-11.038",
            "B": "805.55",
            "C": "0.01464",
            "D": "-7.2359E-08",
            "E": "2",
            "Tmin": "132.35",
            "Tmax": "331.75"
        },
        "Pa.s"
    ],
    "VaporViscosity": [
        {
            "eqno": "102",
            "A": "7.4971E-07",
            "B": "0.50587",
            "C": "292.11",
            "D": "780.77",
            "Tmin": "331.75",
            "Tmax": "1000"
        },
        "Pa.s"
    ],
    "LiquidThermalConductivity": [
        {
            "eqno": "16",
            "A": "-0.02241",
            "B": "4.5423",
            "C": "-1.7038",
            "D": "-0.00048445",
            "E": "-0.0000024834",
            "Tmin": "132.35",
            "Tmax": "331.75"
        },
        "W/m/K"
    ],
    "VaporThermalConductivity": [
        {
            "eqno": "102",
            "A": "0.000062348",
            "B": "1.0772",
            "C": "-17.479",
            "D": "116240",
            "Tmin": "331.75",
            "Tmax": "1000"
        },
        "W/m/K"
    ],
    "RPPHeatCapacityCp": [
        {
            "eqno": "4",
            "A": "23417",
            "B": "462.06",
            "C": "-0.22421",
            "D": "0.000039309",
            "Tmin": "200",
            "Tmax": "1500"
        },
        "J/kmol/K"
    ],
    "RelativeStaticPermittivity": [
        {
            "eqno": "120",
            "A": "-1.5046",
            "B": "-1050",
            "C": "-6.3",
            "Tmin": "278.5945",
            "Tmax": "448.5945"
        },
        "_"
    ],
    "AntoineVaporPressure": [
        {
            "eqno": "10",
            "A": "20.694",
            "B": "2614",
            "C": "-46.685",
            "Tmin": "300.98",
            "Tmax": "442.79"
        },
        "Pa"
    ],
    "LiquidViscosityRPS": [
        {
            "eqno": "12",
            "A": "-3.1984",
            "B": "-0.017331",
            "Tmin": "132.35",
            "Tmax": "331.75"
        },
        "Pa.s"
    ],
    "COSTALDVolume": [
        "0.347048",
        "m3/kmol"
    ],
    "DiameterLJ": [
        "6.389352E-10",
        "m"
    ],
    "EnergyLJ": [
        "281.9625",
        "K"
    ],
    "RacketParameter": [
        "0.267",
        "_"
    ],
    "FullerVolume": [
        "123.12",
        "_"
    ],
    "Parachor": [
        "0.0450719",
        "kg0.25.m3/s0.5/kmol"
    ],
    "SpecificGravity": [
        "0.673532",
        "_"
    ],
    "Charge": [
        "0",
        "_"
    ],
    "CostaldAcentricFactor": [
        "0.255237",
        "_"
    ],
    "WilsonVolume": [
        "0.126739",
        "m3/kmol"
    ],
    "ChaoSeaderAcentricFactor": [
        "0.255237",
        "_"
    ],
    "ChaoSeaderSolubilityParameter": [
        "14730",
        "J0.5/m1.5"
    ],
    "ChaoSeaderLiquidVolume": [
        "0.126739",
        "m3/kmol"
    ],
    "RadiusOfGyration": [
        "3.766E-10",
        "m"
    ],
    "VanDerWaalsVolume": [
        "0.06473",
        "m3/kmol"
    ],
    "VanDerWaalsArea": [
        "9.09E+08",
        "m2/kmol"
    ],
    "MatthiasCopemanC1": [
        "0.94792",
        "_"
    ],
    "SolidDensity": [
        {
            "eqno": "2",
            "A": "12.074",
            "B": "-0.0099849",
            "C": "0",
            "D": "0",
            "E": "0",
            "Tmin": "52.94",
            "Tmax": "132.35"
        },
        "kmol/m3"
    ],
    "SurfaceTension": [
        {
            "eqno": "16",
            "A": "-0.008865",
            "B": "28.019",
            "C": "-3.2795",
            "D": "0.00029139",
            "E": "-0.0000066732",
            "Tmin": "132.35",
            "Tmax": "501"
        },
        "N/m"
    ],
    "MatthiasCopemanC2": [
        "-0.45874",
        "_"
    ],
    "UniquacR": [
        "4.2669",
        "_"
    ],
    "UniquacQ": [
        "3.639",
        "_"
    ],
    "ApiSrkS2": [
        "0.000704",
        "_"
    ],
    "MatthiasCopemanC3": [
        "0.95865",
        "_"
    ],
    "SolidHeatCapacityCp": [
        {
            "eqno": "1",
            "A": "156060",
            "Tmin": "0",
            "Tmax": "501"
        },
        "J/kmol/K"
    ],
    "UniquacQP": [
        "4.936",
        "_"
    ],
    "ApiSrkS1": [
        "0.59245",
        "_"
    ]
}