{
    "CAS": "6876-23-9",
    "LibraryIndex": "143",
    "CompoundID": "Trans-1,2-dimethylcyclohexane",
    "StructureFormula": "-CH(CH3)CH(CH3)(CH2)4-",
    "Family": "7",
    "CriticalTemperature": [
        "596.15",
        "K"
    ],
    "CriticalPressure": [
        "2938430",
        "Pa"
    ],
    "CriticalVolume": [
        "0.46",
        "m3/kmol"
    ],
    "CriticalCompressibility": [
        "0.273",
        "_"
    ],
    "NormalBoilingPointTemperature": [
        "396.58",
        "K"
    ],
    "NormalMeltingPointTemperature": [
        "184.99",
        "K"
    ],
    "TriplePointTemperature": [
        "184.99",
        "K"
    ],
    "TriplePointPressure": [
        "0.0803872",
        "Pa"
    ],
    "MolecularWeight": [
        "112.213",
        "kg/kmol"
    ],
    "LiquidVolumeAtNormalBoilingPoint": [
        "0.145347",
        "m3/kmol"
    ],
    "AcentricityFactor": [
        "0.2416",
        "_"
    ],
    "SolubilityParameter": [
        "15780",
        "J0.5/m1.5"
    ],
    "DipoleMoment": [
        "0",
        "Coulomb.m"
    ],
    "HeatOfFormation": [
        "-1.79996E+08",
        "J/kmol"
    ],
    "GibbsEnergyOfFormation": [
        "3.44761E+07",
        "J/kmol"
    ],
    "AbsEntropy": [
        "370912",
        "J/kmol/K"
    ],
    "HeatOfFusionAtMeltingPoint": [
        "1.04223E+07",
        "J/kmol"
    ],
    "HeatOfCombustion": [
        "-4.86436E+09",
        "J/kmol"
    ],
    "LiquidDensity": [
        {
            "eqno": "105",
            "A": "0.54418",
            "B": "0.25029",
            "C": "596.15",
            "D": "0.26582",
            "Tmin": "184.99",
            "Tmax": "574.51"
        },
        "kmol/m3"
    ],
    "VaporPressure": [
        {
            "eqno": "101",
            "A": "78.951",
            "B": "-6905.8",
            "C": "-8.4915",
            "D": "0.0000050406",
            "E": "2",
            "Tmin": "184.99",
            "Tmax": "596.15"
        },
        "Pa"
    ],
    "HeatOfVaporization": [
        {
            "eqno": "106",
            "A": "6.3964E+07",
            "B": "1.6946",
            "C": "-3.2086",
            "D": "3.1663",
            "E": "-1.1947",
            "Tmin": "184.99",
            "Tmax": "574.51"
        },
        "J/kmol"
    ],
    "LiquidHeatCapacityCp": [
        {
            "eqno": "16",
            "A": "107760",
            "B": "95.278",
            "C": "8.9456",
            "D": "0.0091345",
            "E": "-0.000005166",
            "Tmin": "183.68",
            "Tmax": "396.58"
        },
        "J/kmol/K"
    ],
    "IdealGasHeatCapacityCp": [
        {
            "eqno": "16",
            "A": "97739",
            "B": "-799.79",
            "C": "13.856",
            "D": "-0.00049041",
            "E": "1.3436E-07",
            "Tmin": "200",
            "Tmax": "1500"
        },
        "J/kmol/K"
    ],
    "SecondVirialCoefficient": [
        {
            "eqno": "104",
            "A": "0.23992",
            "B": "-317.9",
            "C": "-41.61",
            "D": "-1205.2",
            "E": "1133.9",
            "Tmin": "298.08",
            "Tmax": "2000"
        },
        "m3/kmol"
    ],
    "LiquidViscosity": [
        {
            "eqno": "101",
            "A": "-9.8695",
            "B": "1124.4",
            "C": "-0.19468",
            "D": "4.6083E-07",
            "E": "2",
            "Tmin": "184.99",
            "Tmax": "396.58"
        },
        "Pa.s"
    ],
    "VaporViscosity": [
        {
            "eqno": "102",
            "A": "0.0000004616",
            "B": "0.56409",
            "C": "251.76",
            "D": "9969.9",
            "Tmin": "396.58",
            "Tmax": "1000"
        },
        "Pa.s"
    ],
    "LiquidThermalConductivity": [
        {
            "eqno": "16",
            "A": "-0.096966",
            "B": "-4.6856",
            "C": "-1.2678",
            "D": "-0.00075424",
            "E": "-4.7962E-07",
            "Tmin": "184.99",
            "Tmax": "596.15"
        },
        "W/m/K"
    ],
    "VaporThermalConductivity": [
        {
            "eqno": "102",
            "A": "0.014659",
            "B": "0.3596",
            "C": "28.311",
            "D": "846250",
            "Tmin": "396.58",
            "Tmax": "1000"
        },
        "W/m/K"
    ],
    "RPPHeatCapacityCp": [
        {
            "eqno": "4",
            "A": "-46666",
            "B": "819.31",
            "C": "-0.42362",
            "D": "0.000077591",
            "Tmin": "200",
            "Tmax": "1500"
        },
        "J/kmol/K"
    ],
    "RelativeStaticPermittivity": [
        {
            "eqno": "120",
            "A": "-1.5046",
            "B": "-1050",
            "C": "-6.3",
            "Tmin": "278.5945",
            "Tmax": "448.5945"
        },
        "_"
    ],
    "AntoineVaporPressure": [
        {
            "eqno": "10",
            "A": "20.538",
            "B": "3061.4",
            "C": "-56.887",
            "Tmin": "358.11",
            "Tmax": "531.23"
        },
        "Pa"
    ],
    "LiquidViscosityRPS": [
        {
            "eqno": "12",
            "A": "-2.4752",
            "B": "-0.015117",
            "Tmin": "184.99",
            "Tmax": "396.58"
        },
        "Pa.s"
    ],
    "COSTALDVolume": [
        "0.438832",
        "m3/kmol"
    ],
    "DiameterLJ": [
        "6.840729E-10",
        "m"
    ],
    "EnergyLJ": [
        "363.458",
        "K"
    ],
    "RacketParameter": [
        "0.273",
        "_"
    ],
    "FullerVolume": [
        "164.16",
        "_"
    ],
    "Parachor": [
        "0.0569831",
        "kg0.25.m3/s0.5/kmol"
    ],
    "SpecificGravity": [
        "0.780271",
        "_"
    ],
    "Charge": [
        "0",
        "_"
    ],
    "CostaldAcentricFactor": [
        "0.2416",
        "_"
    ],
    "WilsonVolume": [
        "0.145347",
        "m3/kmol"
    ],
    "ChaoSeaderAcentricFactor": [
        "0.2416",
        "_"
    ],
    "ChaoSeaderSolubilityParameter": [
        "15780",
        "J0.5/m1.5"
    ],
    "ChaoSeaderLiquidVolume": [
        "0.145347",
        "m3/kmol"
    ],
    "RadiusOfGyration": [
        "3.883E-10",
        "m"
    ],
    "VanDerWaalsVolume": [
        "0.08068",
        "m3/kmol"
    ],
    "VanDerWaalsArea": [
        "1.021E+09",
        "m2/kmol"
    ],
    "MatthiasCopemanC1": [
        "0.81029",
        "_"
    ],
    "SolidDensity": [
        {
            "eqno": "2",
            "A": "9.6758",
            "B": "-0.0058139",
            "C": "0",
            "D": "0",
            "E": "0",
            "Tmin": "74",
            "Tmax": "184.99"
        },
        "kmol/m3"
    ],
    "SurfaceTension": [
        {
            "eqno": "16",
            "A": "-0.013995",
            "B": "21.416",
            "C": "-2.9689",
            "D": "-0.00029298",
            "E": "-0.0000033433",
            "Tmin": "184.99",
            "Tmax": "574.51"
        },
        "N/m"
    ],
    "MatthiasCopemanC2": [
        "0.24932",
        "_"
    ],
    "UniquacR": [
        "5.3936",
        "_"
    ],
    "UniquacQ": [
        "4.312",
        "_"
    ],
    "ApiSrkS2": [
        "0.00729",
        "_"
    ],
    "MatthiasCopemanC3": [
        "-0.23737",
        "_"
    ],
    "SolidHeatCapacityCp": [
        {
            "eqno": "100",
            "A": "-13403",
            "B": "1490.6",
            "C": "-9.8224",
            "D": "0.046599",
            "E": "-0.000082592",
            "Tmin": "11.99",
            "Tmax": "172.45"
        },
        "J/kmol/K"
    ],
    "UniquacQP": [
        "4.936",
        "_"
    ],
    "ApiSrkS1": [
        "0.59245",
        "_"
    ]
}