{
    "CAS": "69-72-7",
    "LibraryIndex": "1284",
    "CompoundID": "Salicylic acid",
    "StructureFormula": "HO(C6H4)COOH",
    "Family": "43",
    "CriticalTemperature": [
        "739",
        "K"
    ],
    "CriticalPressure": [
        "5180000",
        "Pa"
    ],
    "CriticalVolume": [
        "0.364",
        "m3/kmol"
    ],
    "CriticalCompressibility": [
        "0.275",
        "_"
    ],
    "NormalBoilingPointTemperature": [
        "529",
        "K"
    ],
    "NormalMeltingPointTemperature": [
        "431.75",
        "K"
    ],
    "TriplePointTemperature": [
        "431.75",
        "K"
    ],
    "TriplePointPressure": [
        "2802.65",
        "Pa"
    ],
    "MolecularWeight": [
        "138.121",
        "kg/kmol"
    ],
    "LiquidVolumeAtNormalBoilingPoint": [
        "0.119591",
        "m3/kmol"
    ],
    "AcentricityFactor": [
        "0.851182",
        "_"
    ],
    "SolubilityParameter": [
        "24210",
        "J0.5/m1.5"
    ],
    "DipoleMoment": [
        "8.84E-30",
        "Coulomb.m"
    ],
    "HeatOfFormation": [
        "-4.948E+08",
        "J/kmol"
    ],
    "GibbsEnergyOfFormation": [
        "-3.954E+08",
        "J/kmol"
    ],
    "AbsEntropy": [
        "399800",
        "J/kmol/K"
    ],
    "HeatOfFusionAtMeltingPoint": [
        "1.959E+07",
        "J/kmol"
    ],
    "HeatOfCombustion": [
        "-2.8901E+09",
        "J/kmol"
    ],
    "LiquidDensity": [
        {
            "eqno": "105",
            "A": "0.8432",
            "B": "0.27522",
            "C": "739",
            "D": "0.28574",
            "Tmin": "426.15",
            "Tmax": "722.53"
        },
        "kmol/m3"
    ],
    "VaporPressure": [
        {
            "eqno": "101",
            "A": "252.5417",
            "B": "-21148.9",
            "C": "-32.63925",
            "D": "0.0000130693",
            "E": "2",
            "Tmin": "429.95",
            "Tmax": "739"
        },
        "Pa"
    ],
    "HeatOfVaporization": [
        {
            "eqno": "106",
            "A": "1.3325E+08",
            "B": "-0.11849",
            "C": "3.6062",
            "D": "-5.1635",
            "E": "2.13",
            "Tmin": "431.75",
            "Tmax": "722.83"
        },
        "J/kmol"
    ],
    "LiquidHeatCapacityCp": [
        {
            "eqno": "16",
            "A": "129500",
            "B": "160.82",
            "C": "8.5105",
            "D": "0.0092921",
            "E": "-0.0000057493",
            "Tmin": "431.75",
            "Tmax": "551.75"
        },
        "J/kmol/K"
    ],
    "IdealGasHeatCapacityCp": [
        {
            "eqno": "16",
            "A": "83388",
            "B": "-879.57",
            "C": "13.917",
            "D": "-0.0013499",
            "E": "0.0000005122",
            "Tmin": "273",
            "Tmax": "1000.15"
        },
        "J/kmol/K"
    ],
    "SecondVirialCoefficient": [
        {
            "eqno": "104",
            "A": "0.37998",
            "B": "-379.85",
            "C": "-418.42",
            "D": "-567110",
            "E": "576970",
            "Tmin": "414",
            "Tmax": "1500"
        },
        "m3/kmol"
    ],
    "LiquidViscosity": [
        {
            "eqno": "101",
            "A": "-50.743",
            "B": "5203.6",
            "C": "5.2837",
            "D": "2.047E-08",
            "E": "2",
            "Tmin": "426.15",
            "Tmax": "591.2"
        },
        "Pa.s"
    ],
    "VaporViscosity": [
        {
            "eqno": "102",
            "A": "1.0029E-07",
            "B": "0.78423",
            "C": "131.87",
            "D": "-154.53",
            "Tmin": "431.75",
            "Tmax": "1000"
        },
        "Pa.s"
    ],
    "LiquidThermalConductivity": [
        {
            "eqno": "16",
            "A": "0.0043799",
            "B": "-391.31",
            "C": "0.63544",
            "D": "-0.0048323",
            "E": "0.0000010995",
            "Tmin": "431.75",
            "Tmax": "529"
        },
        "W/m/K"
    ],
    "VaporThermalConductivity": [
        {
            "eqno": "102",
            "A": "0.000028337",
            "B": "1.1043",
            "C": "106.43",
            "D": "67783",
            "Tmin": "529",
            "Tmax": "1000"
        },
        "W/m/K"
    ],
    "RPPHeatCapacityCp": [
        {
            "eqno": "4",
            "A": "-33229",
            "B": "646.66",
            "C": "-0.44103",
            "D": "0.00010904",
            "Tmin": "273",
            "Tmax": "1000.15"
        },
        "J/kmol/K"
    ],
    "RelativeStaticPermittivity": [
        {
            "eqno": "120",
            "A": "-21.91636",
            "B": "-10000",
            "C": "-66",
            "Tmin": "274.7056",
            "Tmax": "444.7056"
        },
        "_"
    ],
    "AntoineVaporPressure": [
        {
            "eqno": "10",
            "A": "22.591",
            "B": "4389.8",
            "C": "-131.93",
            "Tmin": "445.35",
            "Tmax": "662.19"
        },
        "Pa"
    ],
    "LiquidViscosityRPS": [
        {
            "eqno": "12",
            "A": "-2.3875",
            "B": "-0.010056",
            "Tmin": "426.15",
            "Tmax": "591.2"
        },
        "Pa.s"
    ],
    "COSTALDVolume": [
        "0.38316",
        "m3/kmol"
    ],
    "DiameterLJ": [
        "6.272098E-10",
        "m"
    ],
    "EnergyLJ": [
        "462.5464",
        "K"
    ],
    "RacketParameter": [
        "0.275",
        "_"
    ],
    "FullerVolume": [
        "125.19",
        "_"
    ],
    "Parachor": [
        "0.0500667",
        "kg0.25.m3/s0.5/kmol"
    ],
    "SpecificGravity": [
        "1.298112",
        "_"
    ],
    "Charge": [
        "0",
        "_"
    ],
    "CostaldAcentricFactor": [
        "0.851182",
        "_"
    ],
    "WilsonVolume": [
        "0.119591",
        "m3/kmol"
    ],
    "ChaoSeaderAcentricFactor": [
        "0.851182",
        "_"
    ],
    "ChaoSeaderSolubilityParameter": [
        "24210",
        "J0.5/m1.5"
    ],
    "ChaoSeaderLiquidVolume": [
        "0.119591",
        "m3/kmol"
    ],
    "RadiusOfGyration": [
        "4.251E-10",
        "m"
    ],
    "VanDerWaalsVolume": [
        "0.0711",
        "m3/kmol"
    ],
    "VanDerWaalsArea": [
        "9.12E+08",
        "m2/kmol"
    ],
    "MatthiasCopemanC1": [
        "1.41302",
        "_"
    ],
    "SolidDensity": [
        {
            "eqno": "2",
            "A": "10.991",
            "B": "-0.0020281",
            "C": "0",
            "D": "0",
            "E": "0",
            "Tmin": "78.15",
            "Tmax": "431.75"
        },
        "kmol/m3"
    ],
    "SurfaceTension": [
        {
            "eqno": "16",
            "A": "-0.025399",
            "B": "35.561",
            "C": "-2.635",
            "D": "0.00026914",
            "E": "-0.0000023783",
            "Tmin": "431.75",
            "Tmax": "722.83"
        },
        "N/m"
    ],
    "MatthiasCopemanC2": [
        "0",
        "_"
    ],
    "UniquacR": [
        "4.6869",
        "_"
    ],
    "UniquacQ": [
        "3.624",
        "_"
    ],
    "ApiSrkS2": [
        "0.141244",
        "_"
    ],
    "MatthiasCopemanC3": [
        "0",
        "_"
    ],
    "SolidHeatCapacityCp": [
        {
            "eqno": "100",
            "A": "47862",
            "B": "1.3021",
            "C": "2.8451",
            "D": "-0.0074793",
            "E": "0.0000077542",
            "Tmin": "90",
            "Tmax": "350"
        },
        "J/kmol/K"
    ],
    "UniquacQP": [
        "4.936",
        "_"
    ],
    "ApiSrkS1": [
        "0.529899",
        "_"
    ]
}