{
    "CAS": "691-38-3",
    "LibraryIndex": "227",
    "CompoundID": "4-methyl-cis-2-pentene",
    "StructureFormula": "CH3CHCHCH(CH3)2",
    "Family": "11",
    "CriticalTemperature": [
        "499",
        "K"
    ],
    "CriticalPressure": [
        "3220000",
        "Pa"
    ],
    "CriticalVolume": [
        "0.346",
        "m3/kmol"
    ],
    "CriticalCompressibility": [
        "0.269",
        "_"
    ],
    "NormalBoilingPointTemperature": [
        "329.53",
        "K"
    ],
    "NormalMeltingPointTemperature": [
        "138.72",
        "K"
    ],
    "TriplePointTemperature": [
        "138.3",
        "K"
    ],
    "TriplePointPressure": [
        "0.00215772",
        "Pa"
    ],
    "MolecularWeight": [
        "84.1595",
        "kg/kmol"
    ],
    "LiquidVolumeAtNormalBoilingPoint": [
        "0.126648",
        "m3/kmol"
    ],
    "AcentricityFactor": [
        "0.244178",
        "_"
    ],
    "SolubilityParameter": [
        "14610",
        "J0.5/m1.5"
    ],
    "DipoleMoment": [
        "7.18E-31",
        "Coulomb.m"
    ],
    "HeatOfFormation": [
        "-5.03335E+07",
        "J/kmol"
    ],
    "GibbsEnergyOfFormation": [
        "7.69856E+07",
        "J/kmol"
    ],
    "AbsEntropy": [
        "373338",
        "J/kmol/K"
    ],
    "HeatOfFusionAtMeltingPoint": [
        "7363840",
        "J/kmol"
    ],
    "HeatOfCombustion": [
        "-3.72502E+09",
        "J/kmol"
    ],
    "LiquidDensity": [
        {
            "eqno": "105",
            "A": "0.77793",
            "B": "0.27017",
            "C": "499",
            "D": "0.2861",
            "Tmin": "138.3",
            "Tmax": "480.02"
        },
        "kmol/m3"
    ],
    "VaporPressure": [
        {
            "eqno": "101",
            "A": "83.573",
            "B": "-5993.9",
            "C": "-9.4501",
            "D": "0.0000085686",
            "E": "2",
            "Tmin": "138.3",
            "Tmax": "499"
        },
        "Pa"
    ],
    "HeatOfVaporization": [
        {
            "eqno": "106",
            "A": "5.4227E+07",
            "B": "1.5628",
            "C": "-2.6171",
            "D": "2.4298",
            "E": "-0.92758",
            "Tmin": "138.3",
            "Tmax": "480.02"
        },
        "J/kmol"
    ],
    "LiquidHeatCapacityCp": [
        {
            "eqno": "16",
            "A": "-59803",
            "B": "-16.203",
            "C": "11.773",
            "D": "0.0034333",
            "E": "-0.0000037581",
            "Tmin": "138.3",
            "Tmax": "329.53"
        },
        "J/kmol/K"
    ],
    "IdealGasHeatCapacityCp": [
        {
            "eqno": "16",
            "A": "101130",
            "B": "-861.95",
            "C": "13.463",
            "D": "-0.00060529",
            "E": "2.0212E-07",
            "Tmin": "200",
            "Tmax": "1500"
        },
        "J/kmol/K"
    ],
    "SecondVirialCoefficient": [
        {
            "eqno": "104",
            "A": "0.19352",
            "B": "-193.4",
            "C": "-26.471",
            "D": "-1593.9",
            "E": "1901.2",
            "Tmin": "249.5",
            "Tmax": "2000"
        },
        "m3/kmol"
    ],
    "LiquidViscosity": [
        {
            "eqno": "101",
            "A": "-11.752",
            "B": "820.42",
            "C": "0.14056",
            "D": "-7.3435E-07",
            "E": "2",
            "Tmin": "138.3",
            "Tmax": "329.53"
        },
        "Pa.s"
    ],
    "VaporViscosity": [
        {
            "eqno": "102",
            "A": "6.3021E-07",
            "B": "0.52941",
            "C": "268.94",
            "D": "16.597",
            "Tmin": "329.53",
            "Tmax": "1000"
        },
        "Pa.s"
    ],
    "LiquidThermalConductivity": [
        {
            "eqno": "16",
            "A": "-0.050868",
            "B": "4.0553",
            "C": "-1.554",
            "D": "-0.00045968",
            "E": "-0.000001981",
            "Tmin": "138.3",
            "Tmax": "329.53"
        },
        "W/m/K"
    ],
    "VaporThermalConductivity": [
        {
            "eqno": "102",
            "A": "0.000052516",
            "B": "1.0978",
            "C": "-60.883",
            "D": "128130",
            "Tmin": "329.53",
            "Tmax": "1000"
        },
        "W/m/K"
    ],
    "RPPHeatCapacityCp": [
        {
            "eqno": "4",
            "A": "16890",
            "B": "454.86",
            "C": "-0.20446",
            "D": "0.000032855",
            "Tmin": "200",
            "Tmax": "1500"
        },
        "J/kmol/K"
    ],
    "RelativeStaticPermittivity": [
        {
            "eqno": "120",
            "A": "-1.5046",
            "B": "-1050",
            "C": "-6.3",
            "Tmin": "278.5945",
            "Tmax": "448.5945"
        },
        "_"
    ],
    "AntoineVaporPressure": [
        {
            "eqno": "10",
            "A": "20.651",
            "B": "2585.2",
            "C": "-46.215",
            "Tmin": "299.87",
            "Tmax": "442.05"
        },
        "Pa"
    ],
    "LiquidViscosityRPS": [
        {
            "eqno": "12",
            "A": "-3.4146",
            "B": "-0.016461",
            "Tmin": "138.3",
            "Tmax": "329.53"
        },
        "Pa.s"
    ],
    "COSTALDVolume": [
        "0.347048",
        "m3/kmol"
    ],
    "DiameterLJ": [
        "6.33239E-10",
        "m"
    ],
    "EnergyLJ": [
        "288.4841",
        "K"
    ],
    "RacketParameter": [
        "0.269",
        "_"
    ],
    "FullerVolume": [
        "123.12",
        "_"
    ],
    "Parachor": [
        "0.0450895",
        "kg0.25.m3/s0.5/kmol"
    ],
    "SpecificGravity": [
        "0.674097",
        "_"
    ],
    "Charge": [
        "0",
        "_"
    ],
    "CostaldAcentricFactor": [
        "0.244178",
        "_"
    ],
    "WilsonVolume": [
        "0.126648",
        "m3/kmol"
    ],
    "ChaoSeaderAcentricFactor": [
        "0.244178",
        "_"
    ],
    "ChaoSeaderSolubilityParameter": [
        "14610",
        "J0.5/m1.5"
    ],
    "ChaoSeaderLiquidVolume": [
        "0.126648",
        "m3/kmol"
    ],
    "RadiusOfGyration": [
        "3.621E-10",
        "m"
    ],
    "VanDerWaalsVolume": [
        "0.06473",
        "m3/kmol"
    ],
    "VanDerWaalsArea": [
        "9.09E+08",
        "m2/kmol"
    ],
    "MatthiasCopemanC1": [
        "0.94792",
        "_"
    ],
    "SolidDensity": [
        {
            "eqno": "2",
            "A": "12.041",
            "B": "-0.0096786",
            "C": "0",
            "D": "0",
            "E": "0",
            "Tmin": "55.32",
            "Tmax": "138.3"
        },
        "kmol/m3"
    ],
    "SurfaceTension": [
        {
            "eqno": "16",
            "A": "-0.011598",
            "B": "20.102",
            "C": "-3.0908",
            "D": "-0.00038666",
            "E": "-0.0000050432",
            "Tmin": "138.3",
            "Tmax": "480.02"
        },
        "N/m"
    ],
    "MatthiasCopemanC2": [
        "-0.45874",
        "_"
    ],
    "UniquacR": [
        "4.2669",
        "_"
    ],
    "UniquacQ": [
        "3.639",
        "_"
    ],
    "ApiSrkS2": [
        "0.001675",
        "_"
    ],
    "MatthiasCopemanC3": [
        "0.95865",
        "_"
    ],
    "SolidHeatCapacityCp": [
        {
            "eqno": "1",
            "A": "156060",
            "Tmin": "0",
            "Tmax": "499"
        },
        "J/kmol/K"
    ],
    "UniquacQP": [
        "4.936",
        "_"
    ],
    "ApiSrkS1": [
        "0.59245",
        "_"
    ]
}