{
    "CAS": "74-93-1",
    "LibraryIndex": "1801",
    "CompoundID": "Methyl mercaptan",
    "StructureFormula": "CH3SH",
    "Family": "41",
    "CriticalTemperature": [
        "470",
        "K"
    ],
    "CriticalPressure": [
        "7230000",
        "Pa"
    ],
    "CriticalVolume": [
        "0.145",
        "m3/kmol"
    ],
    "CriticalCompressibility": [
        "0.268",
        "_"
    ],
    "NormalBoilingPointTemperature": [
        "279.11",
        "K"
    ],
    "NormalMeltingPointTemperature": [
        "150.18",
        "K"
    ],
    "TriplePointTemperature": [
        "150.18",
        "K"
    ],
    "TriplePointPressure": [
        "3.14785",
        "Pa"
    ],
    "MolecularWeight": [
        "48.109",
        "kg/kmol"
    ],
    "LiquidVolumeAtNormalBoilingPoint": [
        "0.05552",
        "m3/kmol"
    ],
    "AcentricityFactor": [
        "0.15",
        "_"
    ],
    "SolubilityParameter": [
        "19470",
        "J0.5/m1.5"
    ],
    "DipoleMoment": [
        "5.07E-30",
        "Coulomb.m"
    ],
    "HeatOfFormation": [
        "-2.26E+07",
        "J/kmol"
    ],
    "GibbsEnergyOfFormation": [
        "-9920000",
        "J/kmol"
    ],
    "AbsEntropy": [
        "255000",
        "J/kmol/K"
    ],
    "HeatOfFusionAtMeltingPoint": [
        "5904000",
        "J/kmol"
    ],
    "HeatOfCombustion": [
        "-1.1517E+09",
        "J/kmol"
    ],
    "LiquidDensity": [
        {
            "eqno": "105",
            "A": "1.954",
            "B": "0.28171",
            "C": "470",
            "D": "0.28737",
            "Tmin": "150.18",
            "Tmax": "453.12"
        },
        "kmol/m3"
    ],
    "VaporPressure": [
        {
            "eqno": "101",
            "A": "115.1598",
            "B": "-6300.053",
            "C": "-14.66478",
            "D": "0.0000195265",
            "E": "2",
            "Tmin": "150.18",
            "Tmax": "469.95"
        },
        "Pa"
    ],
    "HeatOfVaporization": [
        {
            "eqno": "106",
            "A": "3.221375E+07",
            "B": "-0.00310105",
            "C": "0.657759",
            "D": "-0.0249162",
            "E": "-0.340052",
            "Tmin": "150.18",
            "Tmax": "469.95"
        },
        "J/kmol"
    ],
    "LiquidHeatCapacityCp": [
        {
            "eqno": "16",
            "A": "87318",
            "B": "-59222",
            "C": "550.29",
            "D": "-1.6599",
            "E": "0.001702",
            "Tmin": "150.18",
            "Tmax": "298.15"
        },
        "J/kmol/K"
    ],
    "IdealGasHeatCapacityCp": [
        {
            "eqno": "16",
            "A": "38535",
            "B": "-588.35",
            "C": "11.232",
            "D": "0.00044782",
            "E": "-1.6363E-07",
            "Tmin": "100",
            "Tmax": "1500"
        },
        "J/kmol/K"
    ],
    "SecondVirialCoefficient": [
        {
            "eqno": "104",
            "A": "0.086994",
            "B": "-107.34",
            "C": "-7.9703",
            "D": "-15.158",
            "E": "-109.37",
            "Tmin": "235",
            "Tmax": "1880"
        },
        "m3/kmol"
    ],
    "LiquidViscosity": [
        {
            "eqno": "101",
            "A": "-8.947",
            "B": "607.01",
            "C": "-0.26447",
            "D": "0.0000011807",
            "E": "2",
            "Tmin": "150.18",
            "Tmax": "279.11"
        },
        "Pa.s"
    ],
    "VaporViscosity": [
        {
            "eqno": "102",
            "A": "1.9969E-07",
            "B": "0.74097",
            "C": "130.67",
            "D": "-839.04",
            "Tmin": "150.18",
            "Tmax": "1000"
        },
        "Pa.s"
    ],
    "LiquidThermalConductivity": [
        {
            "eqno": "16",
            "A": "-0.011242",
            "B": "-11.424",
            "C": "-1.1701",
            "D": "-0.0017729",
            "E": "-0.0000012043",
            "Tmin": "150.18",
            "Tmax": "279.11"
        },
        "W/m/K"
    ],
    "VaporThermalConductivity": [
        {
            "eqno": "102",
            "A": "0.000024689",
            "B": "1.1702",
            "C": "4.7184",
            "D": "35466",
            "Tmin": "273.15",
            "Tmax": "1000"
        },
        "W/m/K"
    ],
    "RPPHeatCapacityCp": [
        {
            "eqno": "100",
            "A": "34247",
            "B": "10.917",
            "C": "0.21543",
            "D": "-0.00026706",
            "E": "1.0044E-07",
            "Tmin": "50",
            "Tmax": "1000"
        },
        "J/kmol/K"
    ],
    "RelativeStaticPermittivity": [
        {
            "eqno": "120",
            "A": "-17.49",
            "B": "-10000",
            "C": "-95.7",
            "Tmin": "280",
            "Tmax": "450"
        },
        "_"
    ],
    "AntoineVaporPressure": [
        {
            "eqno": "10",
            "A": "21.379",
            "B": "2532.6",
            "C": "-21.919",
            "Tmin": "283.15",
            "Tmax": "419.46"
        },
        "Pa"
    ],
    "LiquidViscosityRPS": [
        {
            "eqno": "12",
            "A": "-4.1431",
            "B": "-0.015082",
            "Tmin": "150.18",
            "Tmax": "279.11"
        },
        "Pa.s"
    ],
    "COSTALDVolume": [
        "0.150999",
        "m3/kmol"
    ],
    "DiameterLJ": [
        "4.759988E-10",
        "m"
    ],
    "EnergyLJ": [
        "268.0997",
        "K"
    ],
    "RacketParameter": [
        "0.268",
        "_"
    ],
    "FullerVolume": [
        "48.04",
        "_"
    ],
    "Parachor": [
        "0.0220648",
        "kg0.25.m3/s0.5/kmol"
    ],
    "SpecificGravity": [
        "0.863192",
        "_"
    ],
    "Charge": [
        "0",
        "_"
    ],
    "CostaldAcentricFactor": [
        "1.17696",
        "_"
    ],
    "WilsonVolume": [
        "0.0888513",
        "m3/kmol"
    ],
    "ChaoSeaderAcentricFactor": [
        "1.17696",
        "_"
    ],
    "ChaoSeaderSolubilityParameter": [
        "28850",
        "J0.5/m1.5"
    ],
    "ChaoSeaderLiquidVolume": [
        "0.0888513",
        "m3/kmol"
    ],
    "RadiusOfGyration": [
        "1.606E-10",
        "m"
    ],
    "VanDerWaalsVolume": [
        "0.02848",
        "m3/kmol"
    ],
    "VanDerWaalsArea": [
        "4.39E+08",
        "m2/kmol"
    ],
    "MatthiasCopemanC1": [
        "0.89544",
        "_"
    ],
    "SolidDensity": [
        {
            "eqno": "2",
            "A": "27.366",
            "B": "-0.020311",
            "C": "0",
            "D": "0",
            "E": "0",
            "Tmin": "60.07",
            "Tmax": "150.18"
        },
        "kmol/m3"
    ],
    "SurfaceTension": [
        {
            "eqno": "16",
            "A": "-0.01346",
            "B": "41.423",
            "C": "-3.0112",
            "D": "0.0013607",
            "E": "-0.000009249",
            "Tmin": "150.18",
            "Tmax": "469.95"
        },
        "N/m"
    ],
    "MatthiasCopemanC2": [
        "-1.4449",
        "_"
    ],
    "UniquacR": [
        "1.877",
        "_"
    ],
    "UniquacQ": [
        "1.676",
        "_"
    ],
    "ApiSrkS2": [
        "0.141244",
        "_"
    ],
    "MatthiasCopemanC3": [
        "2.7511",
        "_"
    ],
    "SolidHeatCapacityCp": [
        {
            "eqno": "100",
            "A": "-10842",
            "B": "883.79",
            "C": "1.0741",
            "D": "-0.071254",
            "E": "0.00032202",
            "Tmin": "14.96",
            "Tmax": "150"
        },
        "J/kmol/K"
    ],
    "UniquacQP": [
        "4.936",
        "_"
    ],
    "ApiSrkS1": [
        "0.529899",
        "_"
    ]
}