{
    "CAS": "75-34-3",
    "LibraryIndex": "1522",
    "CompoundID": "1,1-dichloroethane",
    "StructureFormula": "CHCl2CH3",
    "Family": "65",
    "CriticalTemperature": [
        "523",
        "K"
    ],
    "CriticalPressure": [
        "5100000",
        "Pa"
    ],
    "CriticalVolume": [
        "0.236",
        "m3/kmol"
    ],
    "CriticalCompressibility": [
        "0.277",
        "_"
    ],
    "NormalBoilingPointTemperature": [
        "330.45",
        "K"
    ],
    "NormalMeltingPointTemperature": [
        "176.19",
        "K"
    ],
    "TriplePointTemperature": [
        "176.19",
        "K"
    ],
    "TriplePointPressure": [
        "2.21455",
        "Pa"
    ],
    "MolecularWeight": [
        "98.959",
        "kg/kmol"
    ],
    "LiquidVolumeAtNormalBoilingPoint": [
        "0.08473",
        "m3/kmol"
    ],
    "AcentricityFactor": [
        "0.244",
        "_"
    ],
    "SolubilityParameter": [
        "18300",
        "J0.5/m1.5"
    ],
    "DipoleMoment": [
        "6.87E-30",
        "Coulomb.m"
    ],
    "HeatOfFormation": [
        "-1.2941E+08",
        "J/kmol"
    ],
    "GibbsEnergyOfFormation": [
        "-7.259E+07",
        "J/kmol"
    ],
    "AbsEntropy": [
        "305010",
        "J/kmol/K"
    ],
    "HeatOfFusionAtMeltingPoint": [
        "7870000",
        "J/kmol"
    ],
    "HeatOfCombustion": [
        "-1.1104E+09",
        "J/kmol"
    ],
    "LiquidDensity": [
        {
            "eqno": "105",
            "A": "1.1057",
            "B": "0.26536",
            "C": "523",
            "D": "0.28703",
            "Tmin": "176.19",
            "Tmax": "504.75"
        },
        "kmol/m3"
    ],
    "VaporPressure": [
        {
            "eqno": "101",
            "A": "66.53401",
            "B": "-5492.415",
            "C": "-6.715993",
            "D": "5.298782E-06",
            "E": "2",
            "Tmin": "176.19",
            "Tmax": "523"
        },
        "Pa"
    ],
    "HeatOfVaporization": [
        {
            "eqno": "106",
            "A": "4.458773E+07",
            "B": "0.555838",
            "C": "0.0209485",
            "D": "-0.722234",
            "E": "0.56963",
            "Tmin": "176.19",
            "Tmax": "504.75"
        },
        "J/kmol"
    ],
    "LiquidHeatCapacityCp": [
        {
            "eqno": "16",
            "A": "115470",
            "B": "479.34",
            "C": "1.2009",
            "D": "0.029511",
            "E": "-0.000025794",
            "Tmin": "176.19",
            "Tmax": "330.45"
        },
        "J/kmol/K"
    ],
    "IdealGasHeatCapacityCp": [
        {
            "eqno": "16",
            "A": "45661",
            "B": "-449.92",
            "C": "11.802",
            "D": "0.00015496",
            "E": "-5.3829E-08",
            "Tmin": "150",
            "Tmax": "1500"
        },
        "J/kmol/K"
    ],
    "SecondVirialCoefficient": [
        {
            "eqno": "104",
            "A": "0.065419",
            "B": "-59.071",
            "C": "-33.932",
            "D": "9018.2",
            "E": "-20873",
            "Tmin": "261.5",
            "Tmax": "1500"
        },
        "m3/kmol"
    ],
    "LiquidViscosity": [
        {
            "eqno": "101",
            "A": "-9.7803",
            "B": "891.16",
            "C": "-0.14866",
            "D": "-3.5884E-07",
            "E": "2",
            "Tmin": "176.19",
            "Tmax": "330.45"
        },
        "Pa.s"
    ],
    "VaporViscosity": [
        {
            "eqno": "102",
            "A": "0.0000001814",
            "B": "0.74706",
            "C": "93.461",
            "D": "1513.7",
            "Tmin": "176.19",
            "Tmax": "1000"
        },
        "Pa.s"
    ],
    "LiquidThermalConductivity": [
        {
            "eqno": "16",
            "A": "0.011357",
            "B": "-64.086",
            "C": "-0.98127",
            "D": "-0.0039469",
            "E": "6.6106E-07",
            "Tmin": "156.9",
            "Tmax": "416.9"
        },
        "W/m/K"
    ],
    "VaporThermalConductivity": [
        {
            "eqno": "102",
            "A": "0.00013381",
            "B": "1.01",
            "C": "1042.5",
            "D": "-2442",
            "Tmin": "330.45",
            "Tmax": "1000"
        },
        "W/m/K"
    ],
    "RPPHeatCapacityCp": [
        {
            "eqno": "100",
            "A": "21701",
            "B": "206.64",
            "C": "-0.056123",
            "D": "-0.000086055",
            "E": "5.3462E-08",
            "Tmin": "200",
            "Tmax": "1000"
        },
        "J/kmol/K"
    ],
    "RelativeStaticPermittivity": [
        {
            "eqno": "120",
            "A": "-17.65507",
            "B": "-8350",
            "C": "-50.1",
            "Tmin": "274.15",
            "Tmax": "444.15"
        },
        "_"
    ],
    "AntoineVaporPressure": [
        {
            "eqno": "10",
            "A": "21.36",
            "B": "2884.3",
            "C": "-37.086",
            "Tmin": "318.35",
            "Tmax": "468.24"
        },
        "Pa"
    ],
    "LiquidViscosityRPS": [
        {
            "eqno": "13",
            "A": "0.60084",
            "B": "-0.045249",
            "C": "0.000058588",
            "Tmin": "176.19",
            "Tmax": "330.45"
        },
        "Pa.s"
    ],
    "COSTALDVolume": [
        "0.2369",
        "m3/kmol"
    ],
    "DiameterLJ": [
        "5.38154E-10",
        "m"
    ],
    "EnergyLJ": [
        "336.0022",
        "K"
    ],
    "RacketParameter": [
        "0.281",
        "_"
    ],
    "FullerVolume": [
        "83.04",
        "_"
    ],
    "Parachor": [
        "0.0336",
        "kg0.25.m3/s0.5/kmol"
    ],
    "SpecificGravity": [
        "1.18256",
        "_"
    ],
    "Charge": [
        "0",
        "_"
    ],
    "CostaldAcentricFactor": [
        "0.23646",
        "_"
    ],
    "WilsonVolume": [
        "0.0847207",
        "m3/kmol"
    ],
    "ChaoSeaderAcentricFactor": [
        "0.244612",
        "_"
    ],
    "ChaoSeaderSolubilityParameter": [
        "18299.2",
        "J0.5/m1.5"
    ],
    "ChaoSeaderLiquidVolume": [
        "0.0847207",
        "m3/kmol"
    ],
    "RadiusOfGyration": [
        "3.095E-10",
        "m"
    ],
    "VanDerWaalsVolume": [
        "0.04493",
        "m3/kmol"
    ],
    "VanDerWaalsArea": [
        "6.33E+08",
        "m2/kmol"
    ],
    "MatthiasCopemanC1": [
        "0.95261",
        "_"
    ],
    "SolidDensity": [
        {
            "eqno": "2",
            "A": "17.18",
            "B": "-0.010734",
            "Tmin": "70.48",
            "Tmax": "176.19"
        },
        "kmol/m3"
    ],
    "SurfaceTension": [
        {
            "eqno": "16",
            "A": "-0.043274",
            "B": "-3.8245",
            "C": "-2.0709",
            "D": "-0.0019704",
            "E": "-1.9129E-07",
            "Tmin": "176.19",
            "Tmax": "504.75"
        },
        "N/m"
    ],
    "MatthiasCopemanC2": [
        "-0.83715",
        "_"
    ],
    "UniquacR": [
        "2.9617",
        "_"
    ],
    "UniquacQ": [
        "2.532",
        "_"
    ],
    "ApiSrkS2": [
        "-0.002805",
        "_"
    ],
    "MatthiasCopemanC3": [
        "1.5103",
        "_"
    ],
    "SolidHeatCapacityCp": [
        {
            "eqno": "100",
            "A": "-14894",
            "B": "1761.9",
            "C": "-17.551",
            "D": "0.085912",
            "E": "-0.00013498",
            "Tmin": "14.17",
            "Tmax": "165.75"
        },
        "J/kmol/K"
    ],
    "UniquacQP": [
        "0.96",
        "_"
    ],
    "ApiSrkS1": [
        "1.828343",
        "_"
    ]
}