{
    "CAS": "75-50-3",
    "LibraryIndex": "1703",
    "CompoundID": "Trimethylamine",
    "StructureFormula": "(CH3)3N",
    "Family": "35",
    "CriticalTemperature": [
        "433.3",
        "K"
    ],
    "CriticalPressure": [
        "4075000",
        "Pa"
    ],
    "CriticalVolume": [
        "0.254",
        "m3/kmol"
    ],
    "CriticalCompressibility": [
        "0.266",
        "_"
    ],
    "NormalBoilingPointTemperature": [
        "276.02",
        "K"
    ],
    "NormalMeltingPointTemperature": [
        "156.08",
        "K"
    ],
    "TriplePointTemperature": [
        "156.08",
        "K"
    ],
    "TriplePointPressure": [
        "9.92058",
        "Pa"
    ],
    "MolecularWeight": [
        "59.111",
        "kg/kmol"
    ],
    "LiquidVolumeAtNormalBoilingPoint": [
        "0.09428",
        "m3/kmol"
    ],
    "AcentricityFactor": [
        "0.206243",
        "_"
    ],
    "SolubilityParameter": [
        "14360",
        "J0.5/m1.5"
    ],
    "DipoleMoment": [
        "2.04E-30",
        "Coulomb.m"
    ],
    "HeatOfFormation": [
        "-2.431E+07",
        "J/kmol"
    ],
    "GibbsEnergyOfFormation": [
        "9.899E+07",
        "J/kmol"
    ],
    "AbsEntropy": [
        "287000",
        "J/kmol/K"
    ],
    "HeatOfFusionAtMeltingPoint": [
        "6544000",
        "J/kmol"
    ],
    "HeatOfCombustion": [
        "-2.2449E+09",
        "J/kmol"
    ],
    "LiquidDensity": [
        {
            "eqno": "105",
            "A": "0.67928",
            "B": "0.21649",
            "C": "433.3",
            "D": "0.20925",
            "Tmin": "156",
            "Tmax": "433.25"
        },
        "kmol/m3"
    ],
    "VaporPressure": [
        {
            "eqno": "101",
            "A": "110.254",
            "B": "-5770.536",
            "C": "-14.1719",
            "D": "0.0000238614",
            "E": "2",
            "Tmin": "156.08",
            "Tmax": "433.25"
        },
        "Pa"
    ],
    "HeatOfVaporization": [
        {
            "eqno": "106",
            "A": "4.743116E+07",
            "B": "0.966273",
            "C": "0.752593",
            "D": "-2.762744",
            "E": "1.513109",
            "Tmin": "156.07",
            "Tmax": "433.25"
        },
        "J/kmol"
    ],
    "LiquidHeatCapacityCp": [
        {
            "eqno": "16",
            "A": "112140",
            "B": "1253.3",
            "C": "-12.905",
            "D": "0.10424",
            "E": "-0.00013798",
            "Tmin": "156.08",
            "Tmax": "276.02"
        },
        "J/kmol/K"
    ],
    "IdealGasHeatCapacityCp": [
        {
            "eqno": "16",
            "A": "65203",
            "B": "-794.87",
            "C": "12.953",
            "D": "-0.00031634",
            "E": "6.4426E-08",
            "Tmin": "200",
            "Tmax": "1500"
        },
        "J/kmol/K"
    ],
    "SecondVirialCoefficient": [
        {
            "eqno": "104",
            "A": "0.15207",
            "B": "-148.22",
            "C": "-10.138",
            "D": "-64.001",
            "E": "-71.395",
            "Tmin": "216.6",
            "Tmax": "1732.8"
        },
        "m3/kmol"
    ],
    "LiquidViscosity": [
        {
            "eqno": "101",
            "A": "9.9961",
            "B": "-126.46",
            "C": "-3.1956",
            "D": "-6.7828E-08",
            "E": "2",
            "Tmin": "200",
            "Tmax": "308.15"
        },
        "Pa.s"
    ],
    "VaporViscosity": [
        {
            "eqno": "102",
            "A": "0.000001161",
            "B": "0.48519",
            "C": "364.43",
            "D": "10928",
            "Tmin": "156.08",
            "Tmax": "1000"
        },
        "Pa.s"
    ],
    "LiquidThermalConductivity": [
        {
            "eqno": "16",
            "A": "-0.0043132",
            "B": "-14.875",
            "C": "-1.2529",
            "D": "-0.0019969",
            "E": "-0.0000017575",
            "Tmin": "156.07",
            "Tmax": "276.02"
        },
        "W/m/K"
    ],
    "VaporThermalConductivity": [
        {
            "eqno": "102",
            "A": "0.00027205",
            "B": "0.90104",
            "C": "140.75",
            "D": "139110",
            "Tmin": "273.15",
            "Tmax": "1000"
        },
        "W/m/K"
    ],
    "RPPHeatCapacityCp": [
        {
            "eqno": "100",
            "A": "13802",
            "B": "231.97",
            "C": "0.20928",
            "D": "-0.00042379",
            "E": "1.8209E-07",
            "Tmin": "298",
            "Tmax": "1000"
        },
        "J/kmol/K"
    ],
    "RelativeStaticPermittivity": [
        {
            "eqno": "120",
            "A": "-1.800705",
            "B": "-1250",
            "C": "-7.5",
            "Tmin": "279.15",
            "Tmax": "449.15"
        },
        "_"
    ],
    "AntoineVaporPressure": [
        {
            "eqno": "10",
            "A": "21.042",
            "B": "2412.6",
            "C": "-22.718",
            "Tmin": "260.65",
            "Tmax": "389.49"
        },
        "Pa"
    ],
    "LiquidViscosityRPS": [
        {
            "eqno": "13",
            "A": "-4.3856",
            "B": "-0.019318",
            "C": "0.000016915",
            "Tmin": "200",
            "Tmax": "308.15"
        },
        "Pa.s"
    ],
    "COSTALDVolume": [
        "0.24421",
        "m3/kmol"
    ],
    "DiameterLJ": [
        "5.789818E-10",
        "m"
    ],
    "EnergyLJ": [
        "240.589",
        "K"
    ],
    "RacketParameter": [
        "0.2451",
        "_"
    ],
    "FullerVolume": [
        "73.03",
        "_"
    ],
    "Parachor": [
        "0.0322",
        "kg0.25.m3/s0.5/kmol"
    ],
    "SpecificGravity": [
        "0.640181",
        "_"
    ],
    "Charge": [
        "0",
        "_"
    ],
    "CostaldAcentricFactor": [
        "0.20498",
        "_"
    ],
    "WilsonVolume": [
        "0.0902163",
        "m3/kmol"
    ],
    "ChaoSeaderAcentricFactor": [
        "0.205",
        "_"
    ],
    "ChaoSeaderSolubilityParameter": [
        "15311.1",
        "J0.5/m1.5"
    ],
    "ChaoSeaderLiquidVolume": [
        "0.0902163",
        "m3/kmol"
    ],
    "RadiusOfGyration": [
        "2.691E-10",
        "m"
    ],
    "VanDerWaalsVolume": [
        "0.04534",
        "m3/kmol"
    ],
    "VanDerWaalsArea": [
        "6.59E+08",
        "m2/kmol"
    ],
    "MatthiasCopemanC1": [
        "0.78024",
        "_"
    ],
    "SolidDensity": [
        {
            "eqno": "2",
            "A": "16.673",
            "B": "-0.011817",
            "Tmin": "62.43",
            "Tmax": "156.08"
        },
        "kmol/m3"
    ],
    "SurfaceTension": [
        {
            "eqno": "16",
            "A": "-0.0074159",
            "B": "80.747",
            "C": "-4.002",
            "D": "0.0040961",
            "E": "-0.000015382",
            "Tmin": "156.08",
            "Tmax": "433.25"
        },
        "N/m"
    ],
    "MatthiasCopemanC2": [
        "0.15515",
        "_"
    ],
    "UniquacR": [
        "2.99",
        "_"
    ],
    "UniquacQ": [
        "2.64",
        "_"
    ],
    "ApiSrkS2": [
        "1.188769",
        "_"
    ],
    "MatthiasCopemanC3": [
        "-0.42677",
        "_"
    ],
    "SolidHeatCapacityCp": [
        {
            "eqno": "100",
            "A": "-12954",
            "B": "1371.3",
            "C": "-11.233",
            "D": "0.058409",
            "E": "-0.00010157",
            "Tmin": "11.87",
            "Tmax": "150"
        },
        "J/kmol/K"
    ],
    "UniquacQP": [
        "0.89",
        "_"
    ],
    "ApiSrkS1": [
        "0.169684",
        "_"
    ]
}