{
    "CAS": "75-65-0",
    "LibraryIndex": "1108",
    "CompoundID": "2-methyl-2-propanol",
    "StructureFormula": "C(CH3)3OH",
    "Family": "46",
    "CriticalTemperature": [
        "506.21",
        "K"
    ],
    "CriticalPressure": [
        "3973000",
        "Pa"
    ],
    "CriticalVolume": [
        "0.275",
        "m3/kmol"
    ],
    "CriticalCompressibility": [
        "0.26",
        "_"
    ],
    "NormalBoilingPointTemperature": [
        "355.49",
        "K"
    ],
    "NormalMeltingPointTemperature": [
        "298.97",
        "K"
    ],
    "TriplePointTemperature": [
        "298.97",
        "K"
    ],
    "TriplePointPressure": [
        "5884.28",
        "Pa"
    ],
    "MolecularWeight": [
        "74.123",
        "kg/kmol"
    ],
    "LiquidVolumeAtNormalBoilingPoint": [
        "0.09488",
        "m3/kmol"
    ],
    "AcentricityFactor": [
        "0.613",
        "_"
    ],
    "SolubilityParameter": [
        "21620",
        "J0.5/m1.5"
    ],
    "DipoleMoment": [
        "5.57E-30",
        "Coulomb.m"
    ],
    "HeatOfFormation": [
        "-3.124E+08",
        "J/kmol"
    ],
    "GibbsEnergyOfFormation": [
        "-1.776E+08",
        "J/kmol"
    ],
    "AbsEntropy": [
        "326300",
        "J/kmol/K"
    ],
    "HeatOfFusionAtMeltingPoint": [
        "6703000",
        "J/kmol"
    ],
    "HeatOfCombustion": [
        "-2.4239E+09",
        "J/kmol"
    ],
    "LiquidDensity": [
        {
            "eqno": "105",
            "A": "0.40838",
            "B": "0.17034",
            "C": "508.88",
            "D": "0.1974",
            "Tmin": "293.15",
            "Tmax": "508.87"
        },
        "kmol/m3"
    ],
    "VaporPressure": [
        {
            "eqno": "101",
            "A": "196.8976",
            "B": "-12439.78",
            "C": "-26.03107",
            "D": "0.0000198743",
            "E": "2",
            "Tmin": "252.75",
            "Tmax": "506.2"
        },
        "Pa"
    ],
    "HeatOfVaporization": [
        {
            "eqno": "106",
            "A": "9.49928E+07",
            "B": "1.077392",
            "C": "-0.185452",
            "D": "-0.822732",
            "E": "0.535399",
            "Tmin": "298",
            "Tmax": "506.2"
        },
        "J/kmol"
    ],
    "LiquidHeatCapacityCp": [
        {
            "eqno": "16",
            "A": "-158220",
            "B": "-166.8",
            "C": "13.168",
            "D": "0.0013959",
            "E": "-0.0000019876",
            "Tmin": "298.15",
            "Tmax": "460"
        },
        "J/kmol/K"
    ],
    "IdealGasHeatCapacityCp": [
        {
            "eqno": "16",
            "A": "65560",
            "B": "-540.88",
            "C": "12.558",
            "D": "0.00014695",
            "E": "-5.2324E-08",
            "Tmin": "200",
            "Tmax": "1500"
        },
        "J/kmol/K"
    ],
    "SecondVirialCoefficient": [
        {
            "eqno": "104",
            "A": "0.18659",
            "B": "-157.11",
            "C": "-31.789",
            "D": "-4775.1",
            "E": "5156.6",
            "Tmin": "253.1",
            "Tmax": "1500"
        },
        "m3/kmol"
    ],
    "LiquidViscosity": [
        {
            "eqno": "101",
            "A": "-933.24",
            "B": "39184",
            "C": "142.25",
            "D": "-0.0001583",
            "E": "2",
            "Tmin": "293.15",
            "Tmax": "451.21"
        },
        "Pa.s"
    ],
    "VaporViscosity": [
        {
            "eqno": "102",
            "A": "2.5934E-07",
            "B": "0.64853",
            "C": "136.6",
            "D": "9124.5",
            "Tmin": "298.97",
            "Tmax": "600"
        },
        "Pa.s"
    ],
    "LiquidThermalConductivity": [
        {
            "eqno": "16",
            "A": "0.0056947",
            "B": "358.71",
            "C": "-5.5774",
            "D": "0.012913",
            "E": "-0.000018273",
            "Tmin": "298.97",
            "Tmax": "404.96"
        },
        "W/m/K"
    ],
    "VaporThermalConductivity": [
        {
            "eqno": "102",
            "A": "4.2365E-07",
            "B": "1.7929",
            "C": "-130.93",
            "D": "17989",
            "Tmin": "278.59",
            "Tmax": "766.87"
        },
        "W/m/K"
    ],
    "RPPHeatCapacityCp": [
        {
            "eqno": "100",
            "A": "21709",
            "B": "299.75",
            "C": "0.12613",
            "D": "-0.00036251",
            "E": "1.6188E-07",
            "Tmin": "50",
            "Tmax": "1000"
        },
        "J/kmol/K"
    ],
    "RelativeStaticPermittivity": [
        {
            "eqno": "120",
            "A": "-30.07289",
            "B": "-11424.69",
            "C": "-54.73557",
            "Tmin": "283",
            "Tmax": "536"
        },
        "_"
    ],
    "AntoineVaporPressure": [
        {
            "eqno": "10",
            "A": "21.291",
            "B": "2437.7",
            "C": "-105.93",
            "Tmin": "303.83",
            "Tmax": "451.67"
        },
        "Pa"
    ],
    "LiquidViscosityRPS": [
        {
            "eqno": "13",
            "A": "17.837",
            "B": "-0.11457",
            "C": "0.00012188",
            "Tmin": "293.15",
            "Tmax": "451.21"
        },
        "Pa.s"
    ],
    "COSTALDVolume": [
        "0.2876",
        "m3/kmol"
    ],
    "DiameterLJ": [
        "6.110187E-10",
        "m"
    ],
    "EnergyLJ": [
        "258.9095",
        "K"
    ],
    "RacketParameter": [
        "0.2538",
        "_"
    ],
    "FullerVolume": [
        "92.81",
        "_"
    ],
    "Parachor": [
        "0.0466",
        "kg0.25.m3/s0.5/kmol"
    ],
    "SpecificGravity": [
        "0.781255",
        "_"
    ],
    "Charge": [
        "0",
        "_"
    ],
    "CostaldAcentricFactor": [
        "0.61339",
        "_"
    ],
    "WilsonVolume": [
        "0.09488",
        "m3/kmol"
    ],
    "ChaoSeaderAcentricFactor": [
        "0.612",
        "_"
    ],
    "ChaoSeaderSolubilityParameter": [
        "21491.8",
        "J0.5/m1.5"
    ],
    "ChaoSeaderLiquidVolume": [
        "0.0948614",
        "m3/kmol"
    ],
    "RadiusOfGyration": [
        "3.067E-10",
        "m"
    ],
    "VanDerWaalsVolume": [
        "0.05238",
        "m3/kmol"
    ],
    "VanDerWaalsArea": [
        "7.62E+08",
        "m2/kmol"
    ],
    "MatthiasCopemanC1": [
        "1.199",
        "_"
    ],
    "SolidDensity": [
        {
            "eqno": "2",
            "A": "13.269",
            "B": "-0.0042735",
            "Tmin": "119.59",
            "Tmax": "298.97"
        },
        "kmol/m3"
    ],
    "SurfaceTension": [
        {
            "eqno": "16",
            "A": "0.0025589",
            "B": "-1098.2",
            "C": "4.0953",
            "D": "-0.014096",
            "E": "-0.0000031561",
            "Tmin": "288.15",
            "Tmax": "355.57"
        },
        "N/m"
    ],
    "MatthiasCopemanC2": [
        "1.1555",
        "_"
    ],
    "UniquacR": [
        "3.4528",
        "_"
    ],
    "UniquacQ": [
        "3.128",
        "_"
    ],
    "ApiSrkS2": [
        "0.484002",
        "_"
    ],
    "MatthiasCopemanC3": [
        "-0.2932",
        "_"
    ],
    "SolidHeatCapacityCp": [
        {
            "eqno": "100",
            "A": "6950.4",
            "B": "346.65",
            "C": "4.7374",
            "D": "-0.035946",
            "E": "0.000081348",
            "Tmin": "25",
            "Tmax": "286.13"
        },
        "J/kmol/K"
    ],
    "UniquacQP": [
        "0.88",
        "_"
    ],
    "ApiSrkS1": [
        "0.745244",
        "_"
    ]
}