{
    "CAS": "75-83-2",
    "LibraryIndex": "14",
    "CompoundID": "2,2-dimethylbutane",
    "StructureFormula": "CH3CH2C(CH3)3",
    "Family": "3",
    "CriticalTemperature": [
        "488.7",
        "K"
    ],
    "CriticalPressure": [
        "3080000",
        "Pa"
    ],
    "CriticalVolume": [
        "0.3591",
        "m3/kmol"
    ],
    "CriticalCompressibility": [
        "0.272",
        "_"
    ],
    "NormalBoilingPointTemperature": [
        "322.87",
        "K"
    ],
    "NormalMeltingPointTemperature": [
        "174.28",
        "K"
    ],
    "TriplePointTemperature": [
        "174.28",
        "K"
    ],
    "TriplePointPressure": [
        "4.0748",
        "Pa"
    ],
    "MolecularWeight": [
        "86.177",
        "kg/kmol"
    ],
    "LiquidVolumeAtNormalBoilingPoint": [
        "0.13373",
        "m3/kmol"
    ],
    "AcentricityFactor": [
        "0.233",
        "_"
    ],
    "SolubilityParameter": [
        "13770",
        "J0.5/m1.5"
    ],
    "DipoleMoment": [
        "0",
        "Coulomb.m"
    ],
    "HeatOfFormation": [
        "-1.8468E+08",
        "J/kmol"
    ],
    "GibbsEnergyOfFormation": [
        "-8745000",
        "J/kmol"
    ],
    "AbsEntropy": [
        "358340",
        "J/kmol/K"
    ],
    "HeatOfFusionAtMeltingPoint": [
        "579100",
        "J/kmol"
    ],
    "HeatOfCombustion": [
        "-3.8411E+09",
        "J/kmol"
    ],
    "LiquidDensity": [
        {
            "eqno": "105",
            "A": "0.68727",
            "B": "0.26184",
            "C": "489.01",
            "D": "0.26217",
            "Tmin": "174.28",
            "Tmax": "489"
        },
        "kmol/m3"
    ],
    "VaporPressure": [
        {
            "eqno": "101",
            "A": "94.2252",
            "B": "-6117.857",
            "C": "-11.25759",
            "D": "0.0000123761",
            "E": "2",
            "Tmin": "174.28",
            "Tmax": "489"
        },
        "Pa"
    ],
    "HeatOfVaporization": [
        {
            "eqno": "106",
            "A": "5.850808E+07",
            "B": "1.595989",
            "C": "-1.437803",
            "D": "0.0287957",
            "E": "0.293443",
            "Tmin": "174.28",
            "Tmax": "472.44"
        },
        "J/kmol"
    ],
    "LiquidHeatCapacityCp": [
        {
            "eqno": "16",
            "A": "117360",
            "B": "-28.344",
            "C": "9.2143",
            "D": "0.0086854",
            "E": "-0.00000596",
            "Tmin": "174.28",
            "Tmax": "322.88"
        },
        "J/kmol/K"
    ],
    "IdealGasHeatCapacityCp": [
        {
            "eqno": "16",
            "A": "73375",
            "B": "-521.55",
            "C": "12.775",
            "D": "0.00038975",
            "E": "-1.1854E-07",
            "Tmin": "200",
            "Tmax": "1500"
        },
        "J/kmol/K"
    ],
    "SecondVirialCoefficient": [
        {
            "eqno": "104",
            "A": "0.19877",
            "B": "-197.24",
            "C": "-29.493",
            "D": "-899.68",
            "E": "-190.18",
            "Tmin": "244.37",
            "Tmax": "1954.92"
        },
        "m3/kmol"
    ],
    "LiquidViscosity": [
        {
            "eqno": "101",
            "A": "22.562",
            "B": "-455.85",
            "C": "-5.0804",
            "D": "-5.7101E-07",
            "E": "2",
            "Tmin": "220",
            "Tmax": "322.88"
        },
        "Pa.s"
    ],
    "VaporViscosity": [
        {
            "eqno": "102",
            "A": "1.9362E-07",
            "B": "0.68259",
            "C": "102.35",
            "D": "-10.082",
            "Tmin": "174.28",
            "Tmax": "1000"
        },
        "Pa.s"
    ],
    "LiquidThermalConductivity": [
        {
            "eqno": "16",
            "A": "-0.038291",
            "B": "4.8824",
            "C": "-1.6311",
            "D": "-0.00047294",
            "E": "-0.0000023877",
            "Tmin": "174.28",
            "Tmax": "322.89"
        },
        "W/m/K"
    ],
    "VaporThermalConductivity": [
        {
            "eqno": "102",
            "A": "0.00018521",
            "B": "0.9549",
            "C": "83.825",
            "D": "174320",
            "Tmin": "322.88",
            "Tmax": "1000"
        },
        "W/m/K"
    ],
    "RPPHeatCapacityCp": [
        {
            "eqno": "100",
            "A": "25002",
            "B": "324.75",
            "C": "0.40334",
            "D": "-0.00068536",
            "E": "2.7995E-07",
            "Tmin": "200",
            "Tmax": "1000"
        },
        "J/kmol/K"
    ],
    "RelativeStaticPermittivity": [
        {
            "eqno": "120",
            "A": "-19.94714",
            "B": "-9100",
            "C": "-54.6",
            "Tmin": "274.15",
            "Tmax": "444.15"
        },
        "_"
    ],
    "AntoineVaporPressure": [
        {
            "eqno": "10",
            "A": "20.782",
            "B": "2690.4",
            "C": "-32.326",
            "Tmin": "298.15",
            "Tmax": "439.31"
        },
        "Pa"
    ],
    "LiquidViscosityRPS": [
        {
            "eqno": "13",
            "A": "-3.3309",
            "B": "-0.018831",
            "C": "0.00001104",
            "Tmin": "220",
            "Tmax": "322.88"
        },
        "Pa.s"
    ],
    "COSTALDVolume": [
        "0.366863",
        "m3/kmol"
    ],
    "DiameterLJ": [
        "6.326557E-10",
        "m"
    ],
    "EnergyLJ": [
        "294.0381",
        "K"
    ],
    "RacketParameter": [
        "0.24",
        "_"
    ],
    "FullerVolume": [
        "127.74",
        "_"
    ],
    "Parachor": [
        "0.0475",
        "kg0.25.m3/s0.5/kmol"
    ],
    "SpecificGravity": [
        "0.65323",
        "_"
    ],
    "Charge": [
        "0",
        "_"
    ],
    "CostaldAcentricFactor": [
        "0.23385",
        "_"
    ],
    "WilsonVolume": [
        "0.133712",
        "m3/kmol"
    ],
    "ChaoSeaderAcentricFactor": [
        "0.23385",
        "_"
    ],
    "ChaoSeaderSolubilityParameter": [
        "13771.5",
        "J0.5/m1.5"
    ],
    "ChaoSeaderLiquidVolume": [
        "0.133712",
        "m3/kmol"
    ],
    "RadiusOfGyration": [
        "3.476E-10",
        "m"
    ],
    "VanDerWaalsVolume": [
        "0.06824",
        "m3/kmol"
    ],
    "VanDerWaalsArea": [
        "9.83E+08",
        "m2/kmol"
    ],
    "MatthiasCopemanC1": [
        "0.8342",
        "_"
    ],
    "SolidDensity": [
        {
            "eqno": "2",
            "A": "10.998",
            "B": "-0.0069098",
            "Tmin": "69.71",
            "Tmax": "174.28"
        },
        "kmol/m3"
    ],
    "SurfaceTension": [
        {
            "eqno": "16",
            "A": "-0.012433",
            "B": "29.735",
            "C": "-3.2504",
            "D": "0.00031415",
            "E": "-0.0000057433",
            "Tmin": "174.28",
            "Tmax": "472.44"
        },
        "N/m"
    ],
    "MatthiasCopemanC2": [
        "0.0743",
        "_"
    ],
    "UniquacR": [
        "4.4983",
        "_"
    ],
    "UniquacQ": [
        "3.932",
        "_"
    ],
    "ApiSrkS2": [
        "-0.006195",
        "_"
    ],
    "MatthiasCopemanC3": [
        "-0.31834",
        "_"
    ],
    "SolidHeatCapacityCp": [
        {
            "eqno": "100",
            "A": "-19150",
            "B": "1973.9",
            "C": "-19.068",
            "D": "0.10881",
            "E": "-0.0001861",
            "Tmin": "12.86",
            "Tmax": "167.68"
        },
        "J/kmol/K"
    ],
    "UniquacQP": [
        "3.24",
        "_"
    ],
    "ApiSrkS1": [
        "0.745244",
        "_"
    ]
}