{
    "CAS": "75-87-6",
    "LibraryIndex": "4865",
    "CompoundID": "Trichloroacetaldehyde",
    "StructureFormula": "CCl3CHO",
    "Family": "71",
    "CriticalTemperature": [
        "565",
        "K"
    ],
    "CriticalPressure": [
        "4410000",
        "Pa"
    ],
    "CriticalVolume": [
        "0.288",
        "m3/kmol"
    ],
    "CriticalCompressibility": [
        "0.27",
        "_"
    ],
    "NormalBoilingPointTemperature": [
        "370.85",
        "K"
    ],
    "NormalMeltingPointTemperature": [
        "216",
        "K"
    ],
    "TriplePointTemperature": [
        "216",
        "K"
    ],
    "TriplePointPressure": [
        "10.133",
        "Pa"
    ],
    "MolecularWeight": [
        "147.388",
        "kg/kmol"
    ],
    "LiquidVolumeAtNormalBoilingPoint": [
        "0.0983111",
        "m3/kmol"
    ],
    "AcentricityFactor": [
        "0.332334",
        "_"
    ],
    "SolubilityParameter": [
        "19150",
        "J0.5/m1.5"
    ],
    "DipoleMoment": [
        "6.54E-30",
        "Coulomb.m"
    ],
    "HeatOfFormation": [
        "-1.97E+08",
        "J/kmol"
    ],
    "GibbsEnergyOfFormation": [
        "-1.48E+08",
        "J/kmol"
    ],
    "AbsEntropy": [
        "348000",
        "J/kmol/K"
    ],
    "HeatOfFusionAtMeltingPoint": [
        "0",
        "J/kmol"
    ],
    "HeatOfCombustion": [
        "-6.72E+08",
        "J/kmol"
    ],
    "LiquidDensity": [
        {
            "eqno": "105",
            "A": "0.92352",
            "B": "0.2658",
            "C": "565",
            "D": "0.27915",
            "Tmin": "216",
            "Tmax": "565"
        },
        "kmol/m3"
    ],
    "VaporPressure": [
        {
            "eqno": "101",
            "A": "104.1738",
            "B": "-7649.009",
            "C": "-12.42192",
            "D": "0.0000106892",
            "E": "2",
            "Tmin": "216",
            "Tmax": "565"
        },
        "Pa"
    ],
    "HeatOfVaporization": [
        {
            "eqno": "106",
            "A": "6.2611E+07",
            "B": "1.7765",
            "C": "-3.981",
            "D": "4.442",
            "E": "-1.8138",
            "Tmin": "216",
            "Tmax": "565"
        },
        "J/kmol"
    ],
    "LiquidHeatCapacityCp": [
        {
            "eqno": "16",
            "A": "141170",
            "B": "-5.956",
            "C": "6.555",
            "D": "0.014383",
            "E": "-0.000012896",
            "Tmin": "282.5",
            "Tmax": "422.5"
        },
        "J/kmol/K"
    ],
    "IdealGasHeatCapacityCp": [
        {
            "eqno": "16",
            "A": "75534",
            "B": "-497.17",
            "C": "11.711",
            "D": "-0.00021306",
            "E": "5.7567E-08",
            "Tmin": "216",
            "Tmax": "1200"
        },
        "J/kmol/K"
    ],
    "SecondVirialCoefficient": [
        {
            "eqno": "104",
            "A": "0.17202",
            "B": "-198.18",
            "C": "-54.361",
            "D": "1512",
            "E": "-47122",
            "Tmin": "282.5",
            "Tmax": "2000"
        },
        "m3/kmol"
    ],
    "LiquidViscosity": [
        {
            "eqno": "101",
            "A": "-15.452",
            "B": "1500.4",
            "C": "0.62119",
            "D": "1.0267E-07",
            "E": "2",
            "Tmin": "225",
            "Tmax": "370.85"
        },
        "Pa.s"
    ],
    "VaporViscosity": [
        {
            "eqno": "102",
            "A": "1.9624E-07",
            "B": "0.76217",
            "C": "181.59",
            "D": "-7289.4",
            "Tmin": "216",
            "Tmax": "1000"
        },
        "Pa.s"
    ],
    "LiquidThermalConductivity": [
        {
            "eqno": "16",
            "A": "-0.0058147",
            "B": "-49.103",
            "C": "-1.1431",
            "D": "-0.0024848",
            "E": "-2.7456E-08",
            "Tmin": "216",
            "Tmax": "370.85"
        },
        "W/m/K"
    ],
    "VaporThermalConductivity": [
        {
            "eqno": "102",
            "A": "0.00037396",
            "B": "0.73494",
            "C": "540.31",
            "D": "2896.6",
            "Tmin": "370.85",
            "Tmax": "1000"
        },
        "W/m/K"
    ],
    "RPPHeatCapacityCp": [
        {
            "eqno": "4",
            "A": "51330",
            "B": "196.28",
            "C": "-0.15434",
            "D": "0.000045652",
            "Tmin": "216",
            "Tmax": "1200"
        },
        "J/kmol/K"
    ],
    "RelativeStaticPermittivity": [
        {
            "eqno": "120",
            "A": "-2.691856",
            "B": "-1700",
            "C": "-10.2",
            "Tmin": "270.2611",
            "Tmax": "440.2611"
        },
        "_"
    ],
    "AntoineVaporPressure": [
        {
            "eqno": "10",
            "A": "21.369",
            "B": "3131.8",
            "C": "-52.731",
            "Tmin": "344.58",
            "Tmax": "495.2"
        },
        "Pa"
    ],
    "LiquidViscosityRPS": [
        {
            "eqno": "13",
            "A": "2.5668",
            "B": "-0.047882",
            "C": "0.00005446",
            "Tmin": "225",
            "Tmax": "370.85"
        },
        "Pa.s"
    ],
    "COSTALDVolume": [
        "0.294123",
        "m3/kmol"
    ],
    "DiameterLJ": [
        "5.930245E-10",
        "m"
    ],
    "EnergyLJ": [
        "331.033",
        "K"
    ],
    "RacketParameter": [
        "0.261398",
        "_"
    ],
    "FullerVolume": [
        "103.22",
        "_"
    ],
    "Parachor": [
        "0.0408",
        "kg0.25.m3/s0.5/kmol"
    ],
    "SpecificGravity": [
        "1.515",
        "_"
    ],
    "Charge": [
        "0",
        "_"
    ],
    "CostaldAcentricFactor": [
        "0.332283",
        "_"
    ],
    "WilsonVolume": [
        "0.0983111",
        "m3/kmol"
    ],
    "ChaoSeaderAcentricFactor": [
        "0.332283",
        "_"
    ],
    "ChaoSeaderSolubilityParameter": [
        "19153.3",
        "J0.5/m1.5"
    ],
    "ChaoSeaderLiquidVolume": [
        "0.0983111",
        "m3/kmol"
    ],
    "RadiusOfGyration": [
        "3.649E-10",
        "m"
    ],
    "VanDerWaalsVolume": [
        "0.05519",
        "m3/kmol"
    ],
    "VanDerWaalsArea": [
        "7.83E+08",
        "m2/kmol"
    ],
    "MatthiasCopemanC1": [
        "0.75258",
        "_"
    ],
    "SolidDensity": [
        {
            "eqno": "2",
            "A": "14.036",
            "B": "-0.0072767",
            "Tmin": "86.4",
            "Tmax": "216"
        },
        "kmol/m3"
    ],
    "SurfaceTension": [
        {
            "eqno": "16",
            "A": "-0.010804",
            "B": "115.62",
            "C": "-3.806",
            "D": "0.0033787",
            "E": "-0.0000089296",
            "Tmin": "216",
            "Tmax": "565"
        },
        "N/m"
    ],
    "MatthiasCopemanC2": [
        "0.55295",
        "_"
    ],
    "UniquacR": [
        "3.638102",
        "_"
    ],
    "UniquacQ": [
        "3.132",
        "_"
    ],
    "ApiSrkS2": [
        "-0.430885",
        "_"
    ],
    "MatthiasCopemanC3": [
        "-1.1391",
        "_"
    ],
    "SolidHeatCapacityCp": [
        {
            "eqno": "1",
            "A": "103410",
            "Tmin": "293",
            "Tmax": "5"
        },
        "J/kmol/K"
    ],
    "UniquacQP": [
        "0.96",
        "_"
    ],
    "ApiSrkS1": [
        "1.828343",
        "_"
    ]
}