{
    "CAS": "75-85-4",
    "LibraryIndex": "1111",
    "CompoundID": "2-methyl-2-butanol",
    "StructureFormula": "CH3CH2C(CH3)(OH)CH3",
    "Family": "46",
    "CriticalTemperature": [
        "545",
        "K"
    ],
    "CriticalPressure": [
        "3790000",
        "Pa"
    ],
    "CriticalVolume": [
        "0.323",
        "m3/kmol"
    ],
    "CriticalCompressibility": [
        "0.27",
        "_"
    ],
    "NormalBoilingPointTemperature": [
        "375.15",
        "K"
    ],
    "NormalMeltingPointTemperature": [
        "264.35",
        "K"
    ],
    "TriplePointTemperature": [
        "264.35",
        "K"
    ],
    "TriplePointPressure": [
        "161.196",
        "Pa"
    ],
    "MolecularWeight": [
        "88.15",
        "kg/kmol"
    ],
    "LiquidVolumeAtNormalBoilingPoint": [
        "0.1095",
        "m3/kmol"
    ],
    "AcentricityFactor": [
        "0.478",
        "_"
    ],
    "SolubilityParameter": [
        "20840",
        "J0.5/m1.5"
    ],
    "DipoleMoment": [
        "5.67E-30",
        "Coulomb.m"
    ],
    "HeatOfFormation": [
        "-3.297E+08",
        "J/kmol"
    ],
    "GibbsEnergyOfFormation": [
        "-1.652E+08",
        "J/kmol"
    ],
    "AbsEntropy": [
        "362800",
        "J/kmol/K"
    ],
    "HeatOfFusionAtMeltingPoint": [
        "4456000",
        "J/kmol"
    ],
    "HeatOfCombustion": [
        "-3.0391E+09",
        "J/kmol"
    ],
    "LiquidDensity": [
        {
            "eqno": "105",
            "A": "0.71131",
            "B": "0.24603",
            "C": "545",
            "D": "0.25077",
            "Tmin": "264.35",
            "Tmax": "529"
        },
        "kmol/m3"
    ],
    "VaporPressure": [
        {
            "eqno": "101",
            "A": "111.96",
            "B": "-9620.4",
            "C": "-12.673",
            "D": "0.0000022964",
            "E": "2",
            "Tmin": "264.35",
            "Tmax": "543.7"
        },
        "Pa"
    ],
    "HeatOfVaporization": [
        {
            "eqno": "106",
            "A": "1.022286E+08",
            "B": "1.245977",
            "C": "-0.515176",
            "D": "-0.350588",
            "E": "0.262112",
            "Tmin": "264.35",
            "Tmax": "543.7"
        },
        "J/kmol"
    ],
    "LiquidHeatCapacityCp": [
        {
            "eqno": "16",
            "A": "145240",
            "B": "-80.948",
            "C": "10.283",
            "D": "0.0042992",
            "E": "0.0000021924",
            "Tmin": "264.35",
            "Tmax": "375.15"
        },
        "J/kmol/K"
    ],
    "IdealGasHeatCapacityCp": [
        {
            "eqno": "16",
            "A": "74328",
            "B": "-529.61",
            "C": "12.79",
            "D": "0.000073612",
            "E": "-9.0525E-09",
            "Tmin": "273",
            "Tmax": "1200.15"
        },
        "J/kmol/K"
    ],
    "SecondVirialCoefficient": [
        {
            "eqno": "104",
            "A": "0.2317",
            "B": "-245.23",
            "C": "-25.84",
            "D": "30078",
            "E": "-127780",
            "Tmin": "271.85",
            "Tmax": "1500"
        },
        "m3/kmol"
    ],
    "LiquidViscosity": [
        {
            "eqno": "101",
            "A": "-783.84",
            "B": "31606",
            "C": "120.39",
            "D": "-0.00015466",
            "E": "2",
            "Tmin": "263.15",
            "Tmax": "434.96"
        },
        "Pa.s"
    ],
    "VaporViscosity": [
        {
            "eqno": "102",
            "A": "1.8945E-07",
            "B": "0.71394",
            "C": "173.97",
            "D": "-1855.4",
            "Tmin": "264.35",
            "Tmax": "1000"
        },
        "Pa.s"
    ],
    "LiquidThermalConductivity": [
        {
            "eqno": "16",
            "A": "0.052544",
            "B": "-120.78",
            "C": "-0.20746",
            "D": "-0.0081579",
            "E": "0.0000039201",
            "Tmin": "163.55",
            "Tmax": "433.55"
        },
        "W/m/K"
    ],
    "VaporThermalConductivity": [
        {
            "eqno": "102",
            "A": "1156.2",
            "B": "0.93842",
            "C": "5.9829E+09",
            "D": "-1.5337E+11",
            "Tmin": "375.15",
            "Tmax": "1000"
        },
        "W/m/K"
    ],
    "RPPHeatCapacityCp": [
        {
            "eqno": "100",
            "A": "35603",
            "B": "226.55",
            "C": "0.55283",
            "D": "-0.00088824",
            "E": "3.7199E-07",
            "Tmin": "298",
            "Tmax": "1000"
        },
        "J/kmol/K"
    ],
    "RelativeStaticPermittivity": [
        {
            "eqno": "120",
            "A": "-1.4825",
            "B": "-1000",
            "C": "-6",
            "Tmin": "274.15",
            "Tmax": "444.15"
        },
        "_"
    ],
    "AntoineVaporPressure": [
        {
            "eqno": "10",
            "A": "20.923",
            "B": "2458.2",
            "C": "-113.51",
            "Tmin": "328.15",
            "Tmax": "484.89"
        },
        "Pa"
    ],
    "LiquidViscosityRPS": [
        {
            "eqno": "13",
            "A": "19.92",
            "B": "-0.12833",
            "C": "0.0001442",
            "Tmin": "263.15",
            "Tmax": "434.96"
        },
        "Pa.s"
    ],
    "COSTALDVolume": [
        "0.335173",
        "m3/kmol"
    ],
    "DiameterLJ": [
        "6.161351E-10",
        "m"
    ],
    "EnergyLJ": [
        "319.315",
        "K"
    ],
    "RacketParameter": [
        "0.248616",
        "_"
    ],
    "FullerVolume": [
        "113.33",
        "_"
    ],
    "Parachor": [
        "0.0428",
        "kg0.25.m3/s0.5/kmol"
    ],
    "SpecificGravity": [
        "0.813536",
        "_"
    ],
    "Charge": [
        "0",
        "_"
    ],
    "CostaldAcentricFactor": [
        "0.478",
        "_"
    ],
    "WilsonVolume": [
        "0.1095",
        "m3/kmol"
    ],
    "ChaoSeaderAcentricFactor": [
        "0.478",
        "_"
    ],
    "ChaoSeaderSolubilityParameter": [
        "20840",
        "J0.5/m1.5"
    ],
    "ChaoSeaderLiquidVolume": [
        "0.1095",
        "m3/kmol"
    ],
    "RadiusOfGyration": [
        "3.359E-10",
        "m"
    ],
    "VanDerWaalsVolume": [
        "0.06261",
        "m3/kmol"
    ],
    "VanDerWaalsArea": [
        "9.17E+08",
        "m2/kmol"
    ],
    "MatthiasCopemanC1": [
        "0.78274",
        "_"
    ],
    "SolidDensity": [
        {
            "eqno": "2",
            "A": "12.041",
            "B": "-0.0051748",
            "Tmin": "105.74",
            "Tmax": "264.35"
        },
        "kmol/m3"
    ],
    "SurfaceTension": [
        {
            "eqno": "16",
            "A": "-0.004975",
            "B": "709.64",
            "C": "-10.143",
            "D": "0.02288",
            "E": "-0.000029901",
            "Tmin": "264.35",
            "Tmax": "543.7"
        },
        "N/m"
    ],
    "MatthiasCopemanC2": [
        "3.08387",
        "_"
    ],
    "UniquacR": [
        "4.5972",
        "_"
    ],
    "UniquacQ": [
        "4.284",
        "_"
    ],
    "ApiSrkS2": [
        "0.010549",
        "_"
    ],
    "MatthiasCopemanC3": [
        "-4.0988",
        "_"
    ],
    "SolidHeatCapacityCp": [
        {
            "eqno": "100",
            "A": "-3330500",
            "B": "79184",
            "C": "-676.61",
            "D": "2.5428",
            "E": "-0.0035268",
            "Tmin": "152.5",
            "Tmax": "214.3"
        },
        "J/kmol/K"
    ],
    "UniquacQP": [
        "4.936",
        "_"
    ],
    "ApiSrkS1": [
        "0.905443",
        "_"
    ]
}