{
    "CAS": "76589-16-7",
    "LibraryIndex": "22158",
    "CompoundID": "2-Methoxy-2-Methyl-Heptane",
    "StructureFormula": "(CH3O)(CH3)2 C(CH2)4 CH3",
    "Family": "61",
    "CriticalTemperature": [
        "618.2025",
        "K"
    ],
    "CriticalPressure": [
        "2357849",
        "Pa"
    ],
    "CriticalVolume": [
        "0.53093",
        "m3/kmol"
    ],
    "CriticalCompressibility": [
        "0.24355",
        "_"
    ],
    "NormalBoilingPointTemperature": [
        "446.7301",
        "K"
    ],
    "NormalMeltingPointTemperature": [
        "185.78",
        "K"
    ],
    "TriplePointTemperature": [
        "185.77",
        "K"
    ],
    "TriplePointPressure": [
        "0.113498",
        "Pa"
    ],
    "MolecularWeight": [
        "144.2564",
        "kg/kmol"
    ],
    "LiquidVolumeAtNormalBoilingPoint": [
        "0.18511",
        "m3/kmol"
    ],
    "AcentricityFactor": [
        "0.433286",
        "_"
    ],
    "SolubilityParameter": [
        "14871.82",
        "J0.5/m1.5"
    ],
    "DipoleMoment": [
        "0",
        "Coulomb.m"
    ],
    "HeatOfFormation": [
        "-9790565",
        "J/kmol"
    ],
    "GibbsEnergyOfFormation": [
        "-6.029269",
        "J/kmol"
    ],
    "AbsEntropy": [
        "1629362",
        "J/kmol/K"
    ],
    "HeatOfFusionAtMeltingPoint": [
        "0",
        "J/kmol"
    ],
    "HeatOfCombustion": [
        "-5.95423E+09",
        "J/kmol"
    ],
    "LiquidDensity": [
        {
            "eqno": "105",
            "A": "0.53765",
            "B": "0.25476",
            "C": "567.01",
            "D": "0.28376",
            "Tmin": "185.77",
            "Tmax": "567"
        },
        "kmol/m3"
    ],
    "VaporPressure": [
        {
            "eqno": "200",
            "A": "-8.2705",
            "B": "2.1937",
            "C": "-3.6992",
            "D": "-3.7256",
            "E": "2357800",
            "Tmin": "312.71",
            "Tmax": "618.2"
        },
        "Pa"
    ],
    "HeatOfVaporization": [
        {
            "eqno": "106",
            "A": "6.6655E+07",
            "B": "0.38",
            "C": "0",
            "D": "0",
            "E": "0",
            "Tmin": "312.71",
            "Tmax": "618.2"
        },
        "J/kmol"
    ],
    "LiquidHeatCapacityCp": [
        {
            "eqno": "16",
            "A": "88257",
            "B": "855.11",
            "C": "3.1929",
            "D": "0.026245",
            "E": "-0.000022451",
            "Tmin": "250",
            "Tmax": "425.25"
        },
        "J/kmol/K"
    ],
    "IdealGasHeatCapacityCp": [
        {
            "eqno": "4",
            "A": "-4265.999",
            "B": "921.48",
            "C": "-0.5266",
            "D": "0.000113",
            "Tmin": "185.4608",
            "Tmax": "1500"
        },
        "J/kmol/K"
    ],
    "SecondVirialCoefficient": [
        {
            "eqno": "104",
            "A": "0.26129",
            "B": "-298.53",
            "C": "-61.563",
            "D": "-2356.6",
            "E": "-3540.3",
            "Tmin": "283.5",
            "Tmax": "1500"
        },
        "m3/kmol"
    ],
    "LiquidViscosity": [
        {
            "eqno": "101",
            "A": "-34.674",
            "B": "1655.3",
            "C": "3.8693",
            "D": "-0.0000085602",
            "E": "2",
            "Tmin": "173.15",
            "Tmax": "473.15"
        },
        "Pa.s"
    ],
    "VaporViscosity": [
        {
            "eqno": "2",
            "A": "-4.0287E-08",
            "B": "1.4474E-08",
            "Tmin": "446.73",
            "Tmax": "1000"
        },
        "Pa.s"
    ],
    "LiquidThermalConductivity": [
        {
            "eqno": "16",
            "A": "-0.0714",
            "B": "1.7767",
            "C": "-1.4729",
            "D": "-0.00055517",
            "E": "-0.0000010492",
            "Tmin": "185.77",
            "Tmax": "392.37"
        },
        "W/m/K"
    ],
    "VaporThermalConductivity": [
        {
            "eqno": "102",
            "A": "0.00085233",
            "B": "0.71803",
            "C": "81.386",
            "D": "330930",
            "Tmin": "392.37",
            "Tmax": "1000"
        },
        "W/m/K"
    ],
    "RPPHeatCapacityCp": [
        {
            "eqno": "4",
            "A": "4302",
            "B": "902.18",
            "C": "-0.49999",
            "D": "0.00010387",
            "Tmin": "185.46",
            "Tmax": "1500"
        },
        "J/kmol/K"
    ],
    "RelativeStaticPermittivity": [
        {
            "eqno": "120",
            "A": "0.412687",
            "B": "-16994.83",
            "C": "-34.01907",
            "Tmin": "273",
            "Tmax": "778"
        },
        "_"
    ],
    "AntoineVaporPressure": [
        {
            "eqno": "10",
            "A": "20.91",
            "B": "3457.7",
            "C": "-78.254",
            "Tmin": "312.71",
            "Tmax": "618.2"
        },
        "Pa"
    ],
    "LiquidViscosityRPS": [
        {
            "eqno": "12",
            "A": "-4.0096",
            "B": "-0.012148",
            "Tmin": "173.15",
            "Tmax": "473.15"
        },
        "Pa.s"
    ],
    "COSTALDVolume": [
        "0.573677",
        "m3/kmol"
    ],
    "DiameterLJ": [
        "8.229094E-10",
        "m"
    ],
    "EnergyLJ": [
        "249.8964",
        "K"
    ],
    "RacketParameter": [
        "0.24355",
        "_"
    ],
    "FullerVolume": [
        "195.41",
        "_"
    ],
    "Parachor": [
        "0.0641327",
        "kg0.25.m3/s0.5/kmol"
    ],
    "SpecificGravity": [
        "0.724648",
        "_"
    ],
    "Charge": [
        "0",
        "_"
    ],
    "CostaldAcentricFactor": [
        "0.433286",
        "_"
    ],
    "WilsonVolume": [
        "0.18511",
        "m3/kmol"
    ],
    "ChaoSeaderAcentricFactor": [
        "0.433286",
        "_"
    ],
    "ChaoSeaderSolubilityParameter": [
        "14871.82",
        "J0.5/m1.5"
    ],
    "ChaoSeaderLiquidVolume": [
        "0.18511",
        "m3/kmol"
    ],
    "RadiusOfGyration": [
        "4.51E-10",
        "m"
    ],
    "VanDerWaalsVolume": [
        "0.102631",
        "m3/kmol"
    ],
    "VanDerWaalsArea": [
        "1.448E+09",
        "m2/kmol"
    ],
    "MatthiasCopemanC1": [
        "1.09674",
        "_"
    ],
    "SolidDensity": [
        {
            "eqno": "100",
            "A": "9.1821",
            "B": "-0.0061784",
            "C": "0",
            "D": "0",
            "E": "0",
            "Tmin": "74.31",
            "Tmax": "185.77"
        },
        "kmol/m3"
    ],
    "SurfaceTension": [
        {
            "eqno": "16",
            "A": "-0.01103",
            "B": "38.104",
            "C": "-3.171",
            "D": "0.000054009",
            "E": "-0.0000046411",
            "Tmin": "185.77",
            "Tmax": "546.94"
        },
        "N/m"
    ],
    "MatthiasCopemanC2": [
        "0",
        "_"
    ],
    "UniquacR": [
        "6.7654",
        "_"
    ],
    "UniquacQ": [
        "5.792",
        "_"
    ],
    "ApiSrkS2": [
        "0.141244",
        "_"
    ],
    "MatthiasCopemanC3": [
        "0",
        "_"
    ],
    "SolidHeatCapacityCp": [
        {
            "eqno": "1",
            "A": "262630",
            "Tmin": "0",
            "Tmax": "618.2"
        },
        "J/kmol/K"
    ],
    "UniquacQP": [
        "5.634",
        "_"
    ],
    "ApiSrkS1": [
        "0.529899",
        "_"
    ]
}