{
    "CAS": "767-59-9",
    "LibraryIndex": "723",
    "CompoundID": "1-methylindene",
    "StructureFormula": "CH3(C9H7)",
    "Family": "23",
    "CriticalTemperature": [
        "703",
        "K"
    ],
    "CriticalPressure": [
        "3460000",
        "Pa"
    ],
    "CriticalVolume": [
        "0.436",
        "m3/kmol"
    ],
    "CriticalCompressibility": [
        "0.258",
        "_"
    ],
    "NormalBoilingPointTemperature": [
        "471.65",
        "K"
    ],
    "NormalMeltingPointTemperature": [
        "353.434",
        "K"
    ],
    "TriplePointTemperature": [
        "353.43",
        "K"
    ],
    "TriplePointPressure": [
        "991.297",
        "Pa"
    ],
    "MolecularWeight": [
        "130.186",
        "kg/kmol"
    ],
    "LiquidVolumeAtNormalBoilingPoint": [
        "0.134643",
        "m3/kmol"
    ],
    "AcentricityFactor": [
        "0.334861",
        "_"
    ],
    "SolubilityParameter": [
        "19120",
        "J0.5/m1.5"
    ],
    "DipoleMoment": [
        "0",
        "Coulomb.m"
    ],
    "HeatOfFormation": [
        "1.912E+08",
        "J/kmol"
    ],
    "GibbsEnergyOfFormation": [
        "2.97E+08",
        "J/kmol"
    ],
    "AbsEntropy": [
        "354000",
        "J/kmol/K"
    ],
    "HeatOfFusionAtMeltingPoint": [
        "0",
        "J/kmol"
    ],
    "HeatOfCombustion": [
        "-5.28E+09",
        "J/kmol"
    ],
    "LiquidDensity": [
        {
            "eqno": "105",
            "A": "0.61191",
            "B": "0.25938",
            "C": "703",
            "D": "0.29267",
            "Tmin": "280",
            "Tmax": "680.74"
        },
        "kmol/m3"
    ],
    "VaporPressure": [
        {
            "eqno": "101",
            "A": "86.18824",
            "B": "-8859.756",
            "C": "-9.212247",
            "D": "3.741568E-06",
            "E": "2",
            "Tmin": "280",
            "Tmax": "703"
        },
        "Pa"
    ],
    "HeatOfVaporization": [
        {
            "eqno": "106",
            "A": "8.0901E+07",
            "B": "1.9933",
            "C": "-4.5733",
            "D": "5.098",
            "E": "-2.0923",
            "Tmin": "280",
            "Tmax": "680.74"
        },
        "J/kmol"
    ],
    "LiquidHeatCapacityCp": [
        {
            "eqno": "16",
            "A": "152820",
            "B": "-189.88",
            "C": "10.81",
            "D": "0.00256",
            "E": "-0.0000011085",
            "Tmin": "280",
            "Tmax": "471.65"
        },
        "J/kmol/K"
    ],
    "IdealGasHeatCapacityCp": [
        {
            "eqno": "16",
            "A": "-133130",
            "B": "-213.74",
            "C": "13.196",
            "D": "0.00017372",
            "E": "-4.8074E-08",
            "Tmin": "273",
            "Tmax": "1200"
        },
        "J/kmol/K"
    ],
    "SecondVirialCoefficient": [
        {
            "eqno": "104",
            "A": "0.28669",
            "B": "-413.47",
            "C": "-98.347",
            "D": "-24136",
            "E": "-27455",
            "Tmin": "351.5",
            "Tmax": "1931.5"
        },
        "m3/kmol"
    ],
    "LiquidViscosity": [
        {
            "eqno": "101",
            "A": "-8.2151",
            "B": "1338.2",
            "C": "-0.46592",
            "D": "0.00000135",
            "E": "2",
            "Tmin": "353.15",
            "Tmax": "633.15"
        },
        "Pa.s"
    ],
    "VaporViscosity": [
        {
            "eqno": "102",
            "A": "0.0000033072",
            "B": "0.32792",
            "C": "786.18",
            "D": "680.97",
            "Tmin": "280",
            "Tmax": "1000"
        },
        "Pa.s"
    ],
    "LiquidThermalConductivity": [
        {
            "eqno": "16",
            "A": "-0.018671",
            "B": "-66.592",
            "C": "-0.99313",
            "D": "-0.0021306",
            "E": "2.0941E-07",
            "Tmin": "280",
            "Tmax": "471.65"
        },
        "W/m/K"
    ],
    "VaporThermalConductivity": [
        {
            "eqno": "102",
            "A": "0.000091267",
            "B": "1.0385",
            "C": "720.72",
            "D": "-19410",
            "Tmin": "471.65",
            "Tmax": "1000"
        },
        "W/m/K"
    ],
    "RPPHeatCapacityCp": [
        {
            "eqno": "4",
            "A": "-96611",
            "B": "1045.1",
            "C": "-0.86408",
            "D": "0.00027375",
            "Tmin": "300",
            "Tmax": "1200"
        },
        "J/kmol/K"
    ],
    "RelativeStaticPermittivity": [
        {
            "eqno": "120",
            "A": "-1.4825",
            "B": "-1000",
            "C": "-6",
            "Tmin": "274.15",
            "Tmax": "444.15"
        },
        "_"
    ],
    "AntoineVaporPressure": [
        {
            "eqno": "10",
            "A": "21.371",
            "B": "4079.4",
            "C": "-58.289",
            "Tmin": "280",
            "Tmax": "703"
        },
        "Pa"
    ],
    "LiquidViscosityRPS": [
        {
            "eqno": "13",
            "A": "-1.8047",
            "B": "-0.019941",
            "C": "0.000014687",
            "Tmin": "353.15",
            "Tmax": "633.15"
        },
        "Pa.s"
    ],
    "COSTALDVolume": [
        "0.419867",
        "m3/kmol"
    ],
    "DiameterLJ": [
        "7.191125E-10",
        "m"
    ],
    "EnergyLJ": [
        "349.703",
        "K"
    ],
    "RacketParameter": [
        "0.261176",
        "_"
    ],
    "FullerVolume": [
        "145.5",
        "_"
    ],
    "Parachor": [
        "0.0578",
        "kg0.25.m3/s0.5/kmol"
    ],
    "SpecificGravity": [
        "0.97441",
        "_"
    ],
    "Charge": [
        "0",
        "_"
    ],
    "CostaldAcentricFactor": [
        "0.33569",
        "_"
    ],
    "WilsonVolume": [
        "0.134207",
        "m3/kmol"
    ],
    "ChaoSeaderAcentricFactor": [
        "0.33569",
        "_"
    ],
    "ChaoSeaderSolubilityParameter": [
        "18312.4",
        "J0.5/m1.5"
    ],
    "ChaoSeaderLiquidVolume": [
        "0.134207",
        "m3/kmol"
    ],
    "RadiusOfGyration": [
        "4.195E-10",
        "m"
    ],
    "VanDerWaalsVolume": [
        "0.07745",
        "m3/kmol"
    ],
    "VanDerWaalsArea": [
        "8.56E+08",
        "m2/kmol"
    ],
    "MatthiasCopemanC1": [
        "0.96523",
        "_"
    ],
    "SolidDensity": [
        {
            "eqno": "2",
            "A": "8.82",
            "B": "-1.1395E-16",
            "Tmin": "0",
            "Tmax": "9.5"
        },
        "kmol/m3"
    ],
    "SurfaceTension": [
        {
            "eqno": "16",
            "A": "-0.011077",
            "B": "98.828",
            "C": "-3.4597",
            "D": "0.0014463",
            "E": "-0.0000045421",
            "Tmin": "280",
            "Tmax": "680.74"
        },
        "N/m"
    ],
    "MatthiasCopemanC2": [
        "-0.35375",
        "_"
    ],
    "UniquacR": [
        "5.105471",
        "_"
    ],
    "UniquacQ": [
        "3.424",
        "_"
    ],
    "ApiSrkS2": [
        "-0.005006",
        "_"
    ],
    "MatthiasCopemanC3": [
        "0.78227",
        "_"
    ],
    "SolidHeatCapacityCp": [
        {
            "eqno": "100",
            "A": "-3419.9",
            "B": "1162.6",
            "C": "-5.6175",
            "D": "0.02291",
            "E": "-0.000035065",
            "Tmin": "50",
            "Tmax": "293.15"
        },
        "J/kmol/K"
    ],
    "UniquacQP": [
        "4.936",
        "_"
    ],
    "ApiSrkS1": [
        "0.745244",
        "_"
    ]
}