{
    "CAS": "77-73-6",
    "LibraryIndex": "316",
    "CompoundID": "Dicyclopentadiene",
    "StructureFormula": "C10H12",
    "Family": "14",
    "CriticalTemperature": [
        "660",
        "K"
    ],
    "CriticalPressure": [
        "3060000",
        "Pa"
    ],
    "CriticalVolume": [
        "0.445",
        "m3/kmol"
    ],
    "CriticalCompressibility": [
        "0.248",
        "_"
    ],
    "NormalBoilingPointTemperature": [
        "443",
        "K"
    ],
    "NormalMeltingPointTemperature": [
        "305.15",
        "K"
    ],
    "TriplePointTemperature": [
        "305.15",
        "K"
    ],
    "TriplePointPressure": [
        "566.19",
        "Pa"
    ],
    "MolecularWeight": [
        "132.202",
        "kg/kmol"
    ],
    "LiquidVolumeAtNormalBoilingPoint": [
        "0.134736",
        "m3/kmol"
    ],
    "AcentricityFactor": [
        "0.288011",
        "_"
    ],
    "SolubilityParameter": [
        "17800",
        "J0.5/m1.5"
    ],
    "DipoleMoment": [
        "0",
        "Coulomb.m"
    ],
    "HeatOfFormation": [
        "1.961E+08",
        "J/kmol"
    ],
    "GibbsEnergyOfFormation": [
        "3.75E+08",
        "J/kmol"
    ],
    "AbsEntropy": [
        "240000",
        "J/kmol/K"
    ],
    "HeatOfFusionAtMeltingPoint": [
        "2090000",
        "J/kmol"
    ],
    "HeatOfCombustion": [
        "-5.535E+09",
        "J/kmol"
    ],
    "LiquidDensity": [
        {
            "eqno": "105",
            "A": "0.41899",
            "B": "0.20539",
            "C": "660",
            "D": "0.34053",
            "Tmin": "299.82",
            "Tmax": "641.32"
        },
        "kmol/m3"
    ],
    "VaporPressure": [
        {
            "eqno": "101",
            "A": "72.31496",
            "B": "-7292.827",
            "C": "-7.388294",
            "D": "3.746895E-06",
            "E": "2",
            "Tmin": "243.37",
            "Tmax": "660"
        },
        "Pa"
    ],
    "HeatOfVaporization": [
        {
            "eqno": "106",
            "A": "7.0543E+07",
            "B": "1.9867",
            "C": "-4.6545",
            "D": "5.1772",
            "E": "-2.0831",
            "Tmin": "215.37",
            "Tmax": "641.32"
        },
        "J/kmol"
    ],
    "LiquidHeatCapacityCp": [
        {
            "eqno": "16",
            "A": "83937",
            "B": "-392.22",
            "C": "13.886",
            "D": "-0.0031138",
            "E": "0.000003368",
            "Tmin": "226.76",
            "Tmax": "443.15"
        },
        "J/kmol/K"
    ],
    "IdealGasHeatCapacityCp": [
        {
            "eqno": "16",
            "A": "38735",
            "B": "-535.99",
            "C": "13.553",
            "D": "-0.00031277",
            "E": "0.0000001075",
            "Tmin": "273",
            "Tmax": "1500.15"
        },
        "J/kmol/K"
    ],
    "SecondVirialCoefficient": [
        {
            "eqno": "104",
            "A": "0.30263",
            "B": "-423.69",
            "C": "-80.39",
            "D": "-8399.9",
            "E": "-29911",
            "Tmin": "330",
            "Tmax": "1500"
        },
        "m3/kmol"
    ],
    "LiquidViscosity": [
        {
            "eqno": "101",
            "A": "-11.633",
            "B": "1272.8",
            "C": "0.067676",
            "D": "-1.2999E-07",
            "E": "2",
            "Tmin": "210",
            "Tmax": "443"
        },
        "Pa.s"
    ],
    "VaporViscosity": [
        {
            "eqno": "102",
            "A": "0.0000004337",
            "B": "0.561",
            "C": "232.6",
            "D": "-0.00081701",
            "Tmin": "305.15",
            "Tmax": "1000"
        },
        "Pa.s"
    ],
    "LiquidThermalConductivity": [
        {
            "eqno": "16",
            "A": "0.029848",
            "B": "47.178",
            "C": "-2.5363",
            "D": "0.0023572",
            "E": "-0.0000058893",
            "Tmin": "215.37",
            "Tmax": "443"
        },
        "W/m/K"
    ],
    "VaporThermalConductivity": [
        {
            "eqno": "102",
            "A": "0.00025878",
            "B": "0.8604",
            "C": "51.14",
            "D": "244020",
            "Tmin": "443",
            "Tmax": "1000"
        },
        "W/m/K"
    ],
    "RPPHeatCapacityCp": [
        {
            "eqno": "4",
            "A": "-93645",
            "B": "1047.4",
            "C": "-0.74596",
            "D": "0.00019876",
            "Tmin": "298.15",
            "Tmax": "1500.15"
        },
        "J/kmol/K"
    ],
    "RelativeStaticPermittivity": [
        {
            "eqno": "120",
            "A": "-1.4825",
            "B": "-1000",
            "C": "-6",
            "Tmin": "274.15",
            "Tmax": "444.15"
        },
        "_"
    ],
    "AntoineVaporPressure": [
        {
            "eqno": "10",
            "A": "20.716",
            "B": "3463.4",
            "C": "-65.612",
            "Tmin": "397.37",
            "Tmax": "593.37"
        },
        "Pa"
    ],
    "LiquidViscosityRPS": [
        {
            "eqno": "13",
            "A": "1.0484",
            "B": "-0.038478",
            "C": "0.000039089",
            "Tmin": "210",
            "Tmax": "443"
        },
        "Pa.s"
    ],
    "COSTALDVolume": [
        "0.47426",
        "m3/kmol"
    ],
    "DiameterLJ": [
        "7.592001E-10",
        "m"
    ],
    "EnergyLJ": [
        "284.7627",
        "K"
    ],
    "RacketParameter": [
        "0.259776",
        "_"
    ],
    "FullerVolume": [
        "168.42",
        "_"
    ],
    "Parachor": [
        "0.0577",
        "kg0.25.m3/s0.5/kmol"
    ],
    "SpecificGravity": [
        "0.99181",
        "_"
    ],
    "Charge": [
        "0",
        "_"
    ],
    "CostaldAcentricFactor": [
        "0.2851",
        "_"
    ],
    "WilsonVolume": [
        "0.138585",
        "m3/kmol"
    ],
    "ChaoSeaderAcentricFactor": [
        "0.285111",
        "_"
    ],
    "ChaoSeaderSolubilityParameter": [
        "17445.1",
        "J0.5/m1.5"
    ],
    "ChaoSeaderLiquidVolume": [
        "0.138585",
        "m3/kmol"
    ],
    "RadiusOfGyration": [
        "3.981E-10",
        "m"
    ],
    "VanDerWaalsVolume": [
        "0.08146",
        "m3/kmol"
    ],
    "VanDerWaalsArea": [
        "9.3E+08",
        "m2/kmol"
    ],
    "MatthiasCopemanC1": [
        "1.00701",
        "_"
    ],
    "SolidDensity": [
        {
            "eqno": "2",
            "A": "9.4692",
            "B": "-0.0037207",
            "Tmin": "122.06",
            "Tmax": "307"
        },
        "kmol/m3"
    ],
    "SurfaceTension": [
        {
            "eqno": "16",
            "A": "-0.0036707",
            "B": "-111.23",
            "C": "-2.5419",
            "D": "0.0011565",
            "E": "-0.0000087684",
            "Tmin": "289.37",
            "Tmax": "641.32"
        },
        "N/m"
    ],
    "MatthiasCopemanC2": [
        "0",
        "_"
    ],
    "UniquacR": [
        "5.8156",
        "_"
    ],
    "UniquacQ": [
        "4.548",
        "_"
    ],
    "ApiSrkS2": [
        "-0.005006",
        "_"
    ],
    "MatthiasCopemanC3": [
        "0",
        "_"
    ],
    "SolidHeatCapacityCp": [
        {
            "eqno": "100",
            "A": "5863.1",
            "B": "689.22",
            "C": "-1.2292",
            "D": "0.0028409",
            "E": "-0.0000028796",
            "Tmin": "50",
            "Tmax": "305.15"
        },
        "J/kmol/K"
    ],
    "UniquacQP": [
        "4.936",
        "_"
    ],
    "ApiSrkS1": [
        "0.745244",
        "_"
    ]
}