{
    "CAS": "7782-50-5",
    "LibraryIndex": "918",
    "CompoundID": "Chlorine",
    "StructureFormula": "Cl2",
    "Family": "74",
    "CriticalTemperature": [
        "417",
        "K"
    ],
    "CriticalPressure": [
        "7700000",
        "Pa"
    ],
    "CriticalVolume": [
        "0.124",
        "m3/kmol"
    ],
    "CriticalCompressibility": [
        "0.275",
        "_"
    ],
    "NormalBoilingPointTemperature": [
        "239.12",
        "K"
    ],
    "NormalMeltingPointTemperature": [
        "172.12",
        "K"
    ],
    "TriplePointTemperature": [
        "172.12",
        "K"
    ],
    "TriplePointPressure": [
        "1366.04",
        "Pa"
    ],
    "MolecularWeight": [
        "70.905",
        "kg/kmol"
    ],
    "LiquidVolumeAtNormalBoilingPoint": [
        "0.04536",
        "m3/kmol"
    ],
    "AcentricityFactor": [
        "0.073",
        "_"
    ],
    "SolubilityParameter": [
        "17360",
        "J0.5/m1.5"
    ],
    "DipoleMoment": [
        "0",
        "Coulomb.m"
    ],
    "HeatOfFormation": [
        "0",
        "J/kmol"
    ],
    "GibbsEnergyOfFormation": [
        "0",
        "J/kmol"
    ],
    "AbsEntropy": [
        "222972",
        "J/kmol/K"
    ],
    "HeatOfFusionAtMeltingPoint": [
        "6406000",
        "J/kmol"
    ],
    "HeatOfCombustion": [
        "0",
        "J/kmol"
    ],
    "LiquidDensity": [
        {
            "eqno": "105",
            "A": "1.8293",
            "B": "0.25",
            "C": "417.16",
            "D": "0.26753",
            "Tmin": "172.12",
            "Tmax": "417.15"
        },
        "kmol/m3"
    ],
    "VaporPressure": [
        {
            "eqno": "101",
            "A": "45.776",
            "B": "-3292.7",
            "C": "-3.7926",
            "D": "0.0000049863",
            "E": "2",
            "Tmin": "169.02",
            "Tmax": "417.15"
        },
        "Pa"
    ],
    "HeatOfVaporization": [
        {
            "eqno": "106",
            "A": "2.9601E+07",
            "B": "0.77334",
            "C": "-1.0279",
            "D": "0.93368",
            "E": "-0.2926",
            "Tmin": "172.12",
            "Tmax": "416.75"
        },
        "J/kmol"
    ],
    "LiquidHeatCapacityCp": [
        {
            "eqno": "16",
            "A": "66547",
            "B": "12488",
            "C": "-246.3",
            "D": "-2.7266",
            "E": "-0.021518",
            "Tmin": "172.12",
            "Tmax": "239.12"
        },
        "J/kmol/K"
    ],
    "IdealGasHeatCapacityCp": [
        {
            "eqno": "16",
            "A": "28958",
            "B": "-398.03",
            "C": "10.125",
            "D": "-0.0010681",
            "E": "3.8414E-07",
            "Tmin": "50",
            "Tmax": "1500"
        },
        "J/kmol/K"
    ],
    "SecondVirialCoefficient": [
        {
            "eqno": "104",
            "A": "0.069476",
            "B": "-70.479",
            "C": "-4.3328",
            "D": "1090.9",
            "E": "-2256.3",
            "Tmin": "208.6",
            "Tmax": "2000"
        },
        "m3/kmol"
    ],
    "LiquidViscosity": [
        {
            "eqno": "101",
            "A": "-11.351",
            "B": "502.6",
            "C": "0.30506",
            "D": "-9.5237E-07",
            "E": "2",
            "Tmin": "172.12",
            "Tmax": "333.72"
        },
        "Pa.s"
    ],
    "VaporViscosity": [
        {
            "eqno": "102",
            "A": "2.5899E-07",
            "B": "0.74273",
            "C": "97.463",
            "D": "-22.488",
            "Tmin": "200",
            "Tmax": "1000"
        },
        "Pa.s"
    ],
    "LiquidThermalConductivity": [
        {
            "eqno": "16",
            "A": "-0.48743",
            "B": "13.229",
            "C": "-0.49371",
            "D": "0.00052989",
            "E": "-0.0000020491",
            "Tmin": "170",
            "Tmax": "410"
        },
        "W/m/K"
    ],
    "VaporThermalConductivity": [
        {
            "eqno": "102",
            "A": "0.00096588",
            "B": "0.54995",
            "C": "434.26",
            "D": "3605.9",
            "Tmin": "200",
            "Tmax": "1000"
        },
        "W/m/K"
    ],
    "RPPHeatCapacityCp": [
        {
            "eqno": "100",
            "A": "25409",
            "B": "44.655",
            "C": "-0.067331",
            "D": "0.000047334",
            "E": "-1.2685E-08",
            "Tmin": "50",
            "Tmax": "1000"
        },
        "J/kmol/K"
    ],
    "RelativeStaticPermittivity": [
        {
            "eqno": "120",
            "A": "-3.410371",
            "B": "-2300",
            "C": "-13.8",
            "Tmin": "281.9278",
            "Tmax": "451.9278"
        },
        "_"
    ],
    "AntoineVaporPressure": [
        {
            "eqno": "10",
            "A": "21.434",
            "B": "2268.7",
            "C": "-9.9047",
            "Tmin": "255.79",
            "Tmax": "374.7"
        },
        "Pa"
    ],
    "LiquidViscosityRPS": [
        {
            "eqno": "13",
            "A": "-3.8294",
            "B": "-0.023375",
            "C": "0.000031235",
            "Tmin": "172.12",
            "Tmax": "333.72"
        },
        "Pa.s"
    ],
    "COSTALDVolume": [
        "0.13457",
        "m3/kmol"
    ],
    "DiameterLJ": [
        "4.380459E-10",
        "m"
    ],
    "EnergyLJ": [
        "261.0039",
        "K"
    ],
    "RacketParameter": [
        "0.270937",
        "_"
    ],
    "FullerVolume": [
        "38.4",
        "_"
    ],
    "Parachor": [
        "0.0185",
        "kg0.25.m3/s0.5/kmol"
    ],
    "SpecificGravity": [
        "1.41956",
        "_"
    ],
    "Charge": [
        "0",
        "_"
    ],
    "CostaldAcentricFactor": [
        "0.0821999",
        "_"
    ],
    "WilsonVolume": [
        "0.0455063",
        "m3/kmol"
    ],
    "ChaoSeaderAcentricFactor": [
        "0.0547",
        "_"
    ],
    "ChaoSeaderSolubilityParameter": [
        "20120",
        "J0.5/m1.5"
    ],
    "ChaoSeaderLiquidVolume": [
        "0.0455063",
        "m3/kmol"
    ],
    "RadiusOfGyration": [
        "6.7E-11",
        "m"
    ],
    "VanDerWaalsVolume": [
        "0.0241",
        "m3/kmol"
    ],
    "VanDerWaalsArea": [
        "3.81E+08",
        "m2/kmol"
    ],
    "MatthiasCopemanC1": [
        "0.55192",
        "_"
    ],
    "SolidDensity": [
        {
            "eqno": "2",
            "A": "29.476",
            "B": "-4.0445E-09",
            "Tmin": "113.15",
            "Tmax": "122.65"
        },
        "kmol/m3"
    ],
    "SurfaceTension": [
        {
            "eqno": "16",
            "A": "-0.082803",
            "B": "-1.889",
            "C": "-1.8585",
            "D": "-0.0013422",
            "E": "-4.1394E-07",
            "Tmin": "172.12",
            "Tmax": "404.25"
        },
        "N/m"
    ],
    "MatthiasCopemanC2": [
        "0.01934",
        "_"
    ],
    "UniquacR": [
        "1.5887",
        "_"
    ],
    "UniquacQ": [
        "1.524",
        "_"
    ],
    "ApiSrkS2": [
        "-0.004474",
        "_"
    ],
    "MatthiasCopemanC3": [
        "0.59414",
        "_"
    ],
    "SolidHeatCapacityCp": [
        {
            "eqno": "100",
            "A": "-22198",
            "B": "1876.1",
            "C": "-22.303",
            "D": "0.12569",
            "E": "-0.00025585",
            "Tmin": "19.81",
            "Tmax": "164.99"
        },
        "J/kmol/K"
    ],
    "UniquacQP": [
        "2.82",
        "_"
    ]
}