{
    "CAS": "7782-44-7",
    "LibraryIndex": "901",
    "CompoundID": "Oxygen",
    "StructureFormula": "O2",
    "Family": "74",
    "CriticalTemperature": [
        "154.58",
        "K"
    ],
    "CriticalPressure": [
        "5043000",
        "Pa"
    ],
    "CriticalVolume": [
        "0.07337",
        "m3/kmol"
    ],
    "CriticalCompressibility": [
        "0.288",
        "_"
    ],
    "NormalBoilingPointTemperature": [
        "90.17",
        "K"
    ],
    "NormalMeltingPointTemperature": [
        "54.361",
        "K"
    ],
    "TriplePointTemperature": [
        "54.361",
        "K"
    ],
    "TriplePointPressure": [
        "150",
        "Pa"
    ],
    "MolecularWeight": [
        "31.999",
        "kg/kmol"
    ],
    "LiquidVolumeAtNormalBoilingPoint": [
        "0.02785",
        "m3/kmol"
    ],
    "AcentricityFactor": [
        "0.022",
        "_"
    ],
    "SolubilityParameter": [
        "8182",
        "J0.5/m1.5"
    ],
    "DipoleMoment": [
        "0",
        "Coulomb.m"
    ],
    "HeatOfFormation": [
        "0",
        "J/kmol"
    ],
    "GibbsEnergyOfFormation": [
        "0",
        "J/kmol"
    ],
    "AbsEntropy": [
        "205043",
        "J/kmol/K"
    ],
    "HeatOfFusionAtMeltingPoint": [
        "444000",
        "J/kmol"
    ],
    "HeatOfCombustion": [
        "0",
        "J/kmol"
    ],
    "LiquidDensity": [
        {
            "eqno": "105",
            "A": "2.6097",
            "B": "0.23614",
            "C": "154.78",
            "D": "0.23695",
            "Tmin": "54.35",
            "Tmax": "154.77"
        },
        "kmol/m3"
    ],
    "VaporPressure": [
        {
            "eqno": "101",
            "A": "40.55487",
            "B": "-1120.543",
            "C": "-3.776114",
            "D": "0.0000485344",
            "E": "2",
            "Tmin": "54.35",
            "Tmax": "154.8"
        },
        "Pa"
    ],
    "HeatOfVaporization": [
        {
            "eqno": "106",
            "A": "1.0672E+07",
            "B": "1.5661",
            "C": "-3.4356",
            "D": "3.5416",
            "E": "-1.2718",
            "Tmin": "54.36",
            "Tmax": "154.58"
        },
        "J/kmol"
    ],
    "LiquidHeatCapacityCp": [
        {
            "eqno": "16",
            "A": "53393",
            "B": "-1966.4",
            "C": "48.21",
            "D": "-0.31631",
            "E": "0.0010466",
            "Tmin": "54.36",
            "Tmax": "145"
        },
        "J/kmol/K"
    ],
    "IdealGasHeatCapacityCp": [
        {
            "eqno": "16",
            "A": "29061.62",
            "B": "-1470.897",
            "C": "11.10778",
            "D": "-0.00128484",
            "E": "3.183122E-07",
            "Tmin": "50",
            "Tmax": "1500"
        },
        "J/kmol/K"
    ],
    "SecondVirialCoefficient": [
        {
            "eqno": "104",
            "A": "0.039522",
            "B": "-15.729",
            "C": "-0.082121",
            "D": "0.012408",
            "E": "-0.0087531",
            "Tmin": "77.29",
            "Tmax": "1200"
        },
        "m3/kmol"
    ],
    "LiquidViscosity": [
        {
            "eqno": "101",
            "A": "-5.2319",
            "B": "116.13",
            "C": "-1.0315",
            "D": "0.0000034376",
            "E": "2",
            "Tmin": "54.36",
            "Tmax": "150"
        },
        "Pa.s"
    ],
    "VaporViscosity": [
        {
            "eqno": "102",
            "A": "8.0134E-07",
            "B": "0.60321",
            "C": "56.09",
            "D": "1584.9",
            "Tmin": "54.35",
            "Tmax": "1950"
        },
        "Pa.s"
    ],
    "LiquidThermalConductivity": [
        {
            "eqno": "16",
            "A": "-0.19654",
            "B": "-10.535",
            "C": "-0.46717",
            "D": "-0.0052064",
            "E": "-3.3418E-07",
            "Tmin": "50",
            "Tmax": "150"
        },
        "W/m/K"
    ],
    "VaporThermalConductivity": [
        {
            "eqno": "102",
            "A": "0.0004508",
            "B": "0.74544",
            "C": "58.278",
            "D": "-562.62",
            "Tmin": "60",
            "Tmax": "2000"
        },
        "W/m/K"
    ],
    "RPPHeatCapacityCp": [
        {
            "eqno": "100",
            "A": "30182",
            "B": "-14.916",
            "C": "0.054709",
            "D": "-0.00004997",
            "E": "1.4883E-08",
            "Tmin": "50",
            "Tmax": "1000"
        },
        "J/kmol/K"
    ],
    "RelativeStaticPermittivity": [
        {
            "eqno": "1",
            "A": "1.000494",
            "Tmin": "100",
            "Tmax": "1500"
        },
        "_"
    ],
    "AntoineVaporPressure": [
        {
            "eqno": "10",
            "A": "20.836",
            "B": "842.12",
            "C": "0.35556",
            "Tmin": "92.87",
            "Tmax": "138.76"
        },
        "Pa"
    ],
    "LiquidViscosityRPS": [
        {
            "eqno": "13",
            "A": "-4.5492",
            "B": "-0.061584",
            "C": "0.00019142",
            "Tmin": "54.36",
            "Tmax": "150"
        },
        "Pa.s"
    ],
    "COSTALDVolume": [
        "0.0737899",
        "m3/kmol"
    ],
    "DiameterLJ": [
        "3.479206E-10",
        "m"
    ],
    "EnergyLJ": [
        "114.2561",
        "K"
    ],
    "RacketParameter": [
        "0.2908",
        "_"
    ],
    "FullerVolume": [
        "16.3",
        "_"
    ],
    "Parachor": [
        "0.00953",
        "kg0.25.m3/s0.5/kmol"
    ],
    "SpecificGravity": [
        "1.13768",
        "_"
    ],
    "Charge": [
        "0",
        "_"
    ],
    "CostaldAcentricFactor": [
        "0.0297998",
        "_"
    ],
    "WilsonVolume": [
        "0.0280225",
        "m3/kmol"
    ],
    "ChaoSeaderAcentricFactor": [
        "0.019",
        "_"
    ],
    "ChaoSeaderSolubilityParameter": [
        "8181.93",
        "J0.5/m1.5"
    ],
    "ChaoSeaderLiquidVolume": [
        "0.0280225",
        "m3/kmol"
    ],
    "RadiusOfGyration": [
        "6.8E-11",
        "m"
    ],
    "VanDerWaalsVolume": [
        "0.013",
        "m3/kmol"
    ],
    "VanDerWaalsArea": [
        "2.35E+08",
        "m2/kmol"
    ],
    "MatthiasCopemanC1": [
        "0.51298",
        "_"
    ],
    "SolidDensity": [
        {
            "eqno": "2",
            "A": "44.552",
            "B": "-4.4857E-08",
            "Tmin": "20.65",
            "Tmax": "30.15"
        },
        "kmol/m3"
    ],
    "SurfaceTension": [
        {
            "eqno": "16",
            "A": "-0.0062662",
            "B": "17.53",
            "C": "-3.9173",
            "D": "0.0058473",
            "E": "-0.000091613",
            "Tmin": "54.35",
            "Tmax": "154.58"
        },
        "N/m"
    ],
    "MatthiasCopemanC2": [
        "0",
        "_"
    ],
    "UniquacR": [
        "0.857",
        "_"
    ],
    "UniquacQ": [
        "0.94",
        "_"
    ],
    "ApiSrkS2": [
        "-0.011016",
        "_"
    ],
    "MatthiasCopemanC3": [
        "0",
        "_"
    ],
    "SolidHeatCapacityCp": [
        {
            "eqno": "100",
            "A": "-15381",
            "B": "1601.9",
            "C": "-10.968",
            "D": "0.24187",
            "E": "-0.0020734",
            "Tmin": "13.46",
            "Tmax": "43.78"
        },
        "J/kmol/K"
    ],
    "UniquacQP": [
        "1",
        "_"
    ],
    "ApiSrkS1": [
        "0.975515",
        "_"
    ]
}