{
    "CAS": "78-93-3",
    "LibraryIndex": "1052",
    "CompoundID": "Methyl ethyl ketone",
    "StructureFormula": "CH3COCH2CH3",
    "Family": "26",
    "CriticalTemperature": [
        "536.8",
        "K"
    ],
    "CriticalPressure": [
        "4210000",
        "Pa"
    ],
    "CriticalVolume": [
        "0.267",
        "m3/kmol"
    ],
    "CriticalCompressibility": [
        "0.252",
        "_"
    ],
    "NormalBoilingPointTemperature": [
        "352.71",
        "K"
    ],
    "NormalMeltingPointTemperature": [
        "186.48",
        "K"
    ],
    "TriplePointTemperature": [
        "186.48",
        "K"
    ],
    "TriplePointPressure": [
        "1.3904",
        "Pa"
    ],
    "MolecularWeight": [
        "72.107",
        "kg/kmol"
    ],
    "LiquidVolumeAtNormalBoilingPoint": [
        "0.09013",
        "m3/kmol"
    ],
    "AcentricityFactor": [
        "0.322",
        "_"
    ],
    "SolubilityParameter": [
        "18880",
        "J0.5/m1.5"
    ],
    "DipoleMoment": [
        "9.21E-30",
        "Coulomb.m"
    ],
    "HeatOfFormation": [
        "-2.39E+08",
        "J/kmol"
    ],
    "GibbsEnergyOfFormation": [
        "-1.47E+08",
        "J/kmol"
    ],
    "AbsEntropy": [
        "339400",
        "J/kmol/K"
    ],
    "HeatOfFusionAtMeltingPoint": [
        "8385000",
        "J/kmol"
    ],
    "HeatOfCombustion": [
        "-2.268E+09",
        "J/kmol"
    ],
    "LiquidDensity": [
        {
            "eqno": "105",
            "A": "0.16518",
            "B": "0.10716",
            "C": "536.8",
            "D": "0.15066",
            "Tmin": "186.48",
            "Tmax": "535.5"
        },
        "kmol/m3"
    ],
    "VaporPressure": [
        {
            "eqno": "101",
            "A": "84.00012",
            "B": "-6498.964",
            "C": "-9.389584",
            "D": "8.32043E-06",
            "E": "2",
            "Tmin": "186.48",
            "Tmax": "535.5"
        },
        "Pa"
    ],
    "HeatOfVaporization": [
        {
            "eqno": "106",
            "A": "4.7221E+07",
            "B": "0.30759",
            "C": "0.48591",
            "D": "-0.8645",
            "E": "0.45018",
            "Tmin": "186.48",
            "Tmax": "535.5"
        },
        "J/kmol"
    ],
    "LiquidHeatCapacityCp": [
        {
            "eqno": "16",
            "A": "137210",
            "B": "245.98",
            "C": "6.3249",
            "D": "0.009404",
            "E": "3.3143E-07",
            "Tmin": "180",
            "Tmax": "373.15"
        },
        "J/kmol/K"
    ],
    "IdealGasHeatCapacityCp": [
        {
            "eqno": "16",
            "A": "69404",
            "B": "-545.04",
            "C": "12.139",
            "D": "0.00045578",
            "E": "-1.6351E-07",
            "Tmin": "150",
            "Tmax": "1500"
        },
        "J/kmol/K"
    ],
    "SecondVirialCoefficient": [
        {
            "eqno": "104",
            "A": "0.072002",
            "B": "-61.582",
            "C": "-63.847",
            "D": "32101",
            "E": "-95322",
            "Tmin": "277.75",
            "Tmax": "2000"
        },
        "m3/kmol"
    ],
    "LiquidViscosity": [
        {
            "eqno": "101",
            "A": "-0.60519",
            "B": "503.02",
            "C": "-1.5659",
            "D": "5.5782E-08",
            "E": "2",
            "Tmin": "186.48",
            "Tmax": "535.5"
        },
        "Pa.s"
    ],
    "VaporViscosity": [
        {
            "eqno": "102",
            "A": "2.8817E-08",
            "B": "0.96765",
            "C": "-28.58",
            "D": "7703",
            "Tmin": "186.48",
            "Tmax": "1000"
        },
        "Pa.s"
    ],
    "LiquidThermalConductivity": [
        {
            "eqno": "16",
            "A": "-0.17871",
            "B": "4.3086",
            "C": "-1.0343",
            "D": "0.00010801",
            "E": "-0.0000015411",
            "Tmin": "184.45",
            "Tmax": "422.04"
        },
        "W/m/K"
    ],
    "VaporThermalConductivity": [
        {
            "eqno": "102",
            "A": "-4970700",
            "B": "-0.23106",
            "C": "2.2577E+09",
            "D": "-1.0834E+13",
            "Tmin": "199.82",
            "Tmax": "1000"
        },
        "W/m/K"
    ],
    "RPPHeatCapacityCp": [
        {
            "eqno": "100",
            "A": "52789",
            "B": "91.975",
            "C": "0.40334",
            "D": "-0.00053911",
            "E": "2.0528E-07",
            "Tmin": "200",
            "Tmax": "1000"
        },
        "J/kmol/K"
    ],
    "RelativeStaticPermittivity": [
        {
            "eqno": "120",
            "A": "-9.711039",
            "B": "-13984.86",
            "C": "-7.272391",
            "Tmin": "253",
            "Tmax": "536"
        },
        "_"
    ],
    "AntoineVaporPressure": [
        {
            "eqno": "10",
            "A": "21.449",
            "B": "3070.5",
            "C": "-43.309",
            "Tmin": "325.82",
            "Tmax": "480.39"
        },
        "Pa"
    ],
    "LiquidViscosityRPS": [
        {
            "eqno": "13",
            "A": "-2.4713",
            "B": "-0.024147",
            "C": "0.000020964",
            "Tmin": "186.48",
            "Tmax": "535.5"
        },
        "Pa.s"
    ],
    "COSTALDVolume": [
        "0.261872",
        "m3/kmol"
    ],
    "DiameterLJ": [
        "6.281568E-10",
        "m"
    ],
    "EnergyLJ": [
        "245.3396",
        "K"
    ],
    "RacketParameter": [
        "0.2727",
        "_"
    ],
    "FullerVolume": [
        "88.19",
        "_"
    ],
    "Parachor": [
        "0.036",
        "kg0.25.m3/s0.5/kmol"
    ],
    "SpecificGravity": [
        "0.80904",
        "_"
    ],
    "Charge": [
        "0",
        "_"
    ],
    "CostaldAcentricFactor": [
        "0.3241",
        "_"
    ],
    "WilsonVolume": [
        "0.0901936",
        "m3/kmol"
    ],
    "ChaoSeaderAcentricFactor": [
        "0.3241",
        "_"
    ],
    "ChaoSeaderSolubilityParameter": [
        "18878.7",
        "J0.5/m1.5"
    ],
    "ChaoSeaderLiquidVolume": [
        "0.0901936",
        "m3/kmol"
    ],
    "RadiusOfGyration": [
        "3.135E-10",
        "m"
    ],
    "VanDerWaalsVolume": [
        "0.04927",
        "m3/kmol"
    ],
    "VanDerWaalsArea": [
        "7.19E+08",
        "m2/kmol"
    ],
    "MatthiasCopemanC1": [
        "1.0746",
        "_"
    ],
    "SolidDensity": [
        {
            "eqno": "2",
            "A": "16.07",
            "B": "-0.0096025",
            "Tmin": "74.59",
            "Tmax": "186.48"
        },
        "kmol/m3"
    ],
    "SurfaceTension": [
        {
            "eqno": "16",
            "A": "-0.022005",
            "B": "17.777",
            "C": "-2.7497",
            "D": "-0.00035582",
            "E": "-0.0000031774",
            "Tmin": "186.48",
            "Tmax": "535.5"
        },
        "N/m"
    ],
    "MatthiasCopemanC2": [
        "-0.77001",
        "_"
    ],
    "UniquacR": [
        "3.25",
        "_"
    ],
    "UniquacQ": [
        "2.88",
        "_"
    ],
    "ApiSrkS2": [
        "0.000612",
        "_"
    ],
    "MatthiasCopemanC3": [
        "1.095",
        "_"
    ],
    "SolidHeatCapacityCp": [
        {
            "eqno": "100",
            "A": "-17129",
            "B": "1720.2",
            "C": "-12.568",
            "D": "0.048242",
            "E": "-0.000060858",
            "Tmin": "20",
            "Tmax": "186.51"
        },
        "J/kmol/K"
    ],
    "UniquacQP": [
        "2.684",
        "_"
    ],
    "ApiSrkS1": [
        "0.169684",
        "_"
    ]
}