{
    "CAS": "78-92-2",
    "LibraryIndex": "1107",
    "CompoundID": "2-butanol",
    "StructureFormula": "CH3CH2CH(OH)CH3",
    "Family": "46",
    "CriticalTemperature": [
        "536.05",
        "K"
    ],
    "CriticalPressure": [
        "4179000",
        "Pa"
    ],
    "CriticalVolume": [
        "0.269",
        "m3/kmol"
    ],
    "CriticalCompressibility": [
        "0.252",
        "_"
    ],
    "NormalBoilingPointTemperature": [
        "372.66",
        "K"
    ],
    "NormalMeltingPointTemperature": [
        "158.45",
        "K"
    ],
    "TriplePointTemperature": [
        "158.45",
        "K"
    ],
    "TriplePointPressure": [
        "3.16526E-06",
        "Pa"
    ],
    "MolecularWeight": [
        "74.123",
        "kg/kmol"
    ],
    "LiquidVolumeAtNormalBoilingPoint": [
        "0.09235",
        "m3/kmol"
    ],
    "AcentricityFactor": [
        "0.574",
        "_"
    ],
    "SolubilityParameter": [
        "22620",
        "J0.5/m1.5"
    ],
    "DipoleMoment": [
        "5.54E-30",
        "Coulomb.m"
    ],
    "HeatOfFormation": [
        "-2.929E+08",
        "J/kmol"
    ],
    "GibbsEnergyOfFormation": [
        "-1.696E+08",
        "J/kmol"
    ],
    "AbsEntropy": [
        "364690",
        "J/kmol/K"
    ],
    "HeatOfFusionAtMeltingPoint": [
        "5971000",
        "J/kmol"
    ],
    "HeatOfCombustion": [
        "-2.4408E+09",
        "J/kmol"
    ],
    "LiquidDensity": [
        {
            "eqno": "105",
            "A": "0.65041",
            "B": "0.21558",
            "C": "536.05",
            "D": "0.22084",
            "Tmin": "158.45",
            "Tmax": "516.32"
        },
        "kmol/m3"
    ],
    "VaporPressure": [
        {
            "eqno": "101",
            "A": "145.55",
            "B": "-10811",
            "C": "-17.957",
            "D": "0.0000094132",
            "E": "2",
            "Tmin": "158.45",
            "Tmax": "536.2"
        },
        "Pa"
    ],
    "HeatOfVaporization": [
        {
            "eqno": "106",
            "A": "9.123771E+07",
            "B": "1.779726",
            "C": "-3.389854",
            "D": "3.546493",
            "E": "-1.385264",
            "Tmin": "158.45",
            "Tmax": "516.32"
        },
        "J/kmol"
    ],
    "LiquidHeatCapacityCp": [
        {
            "eqno": "16",
            "A": "68513",
            "B": "631.42",
            "C": "2.7425",
            "D": "0.03164",
            "E": "-0.000028572",
            "Tmin": "158.45",
            "Tmax": "372.7"
        },
        "J/kmol/K"
    ],
    "IdealGasHeatCapacityCp": [
        {
            "eqno": "16",
            "A": "70319",
            "B": "-564.51",
            "C": "12.517",
            "D": "0.00018661",
            "E": "-6.3166E-08",
            "Tmin": "150",
            "Tmax": "1500"
        },
        "J/kmol/K"
    ],
    "SecondVirialCoefficient": [
        {
            "eqno": "104",
            "A": "0.18777",
            "B": "-172.62",
            "C": "-36.943",
            "D": "-5764.3",
            "E": "4704.5",
            "Tmin": "268.1",
            "Tmax": "1955"
        },
        "m3/kmol"
    ],
    "LiquidViscosity": [
        {
            "eqno": "101",
            "A": "19.329",
            "B": "3026.9",
            "C": "-6.6532",
            "D": "0.000029986",
            "E": "2",
            "Tmin": "288.15",
            "Tmax": "373.15"
        },
        "Pa.s"
    ],
    "VaporViscosity": [
        {
            "eqno": "102",
            "A": "1.3231E-07",
            "B": "0.76798",
            "C": "139.73",
            "D": "-4888.6",
            "Tmin": "158.45",
            "Tmax": "1000"
        },
        "Pa.s"
    ],
    "LiquidThermalConductivity": [
        {
            "eqno": "16",
            "A": "0.031711",
            "B": "-158.34",
            "C": "-0.24491",
            "D": "-0.0057475",
            "E": "0.000002591",
            "Tmin": "200",
            "Tmax": "398.15"
        },
        "W/m/K"
    ],
    "VaporThermalConductivity": [
        {
            "eqno": "102",
            "A": "0.0000011661",
            "B": "1.7056",
            "C": "340.33",
            "D": "-60553",
            "Tmin": "281.21",
            "Tmax": "992.7"
        },
        "W/m/K"
    ],
    "RPPHeatCapacityCp": [
        {
            "eqno": "100",
            "A": "32094",
            "B": "237.47",
            "C": "0.22682",
            "D": "-0.00042736",
            "E": "1.7602E-07",
            "Tmin": "50",
            "Tmax": "1000"
        },
        "J/kmol/K"
    ],
    "RelativeStaticPermittivity": [
        {
            "eqno": "120",
            "A": "-30.07289",
            "B": "-11424.69",
            "C": "-54.73557",
            "Tmin": "283",
            "Tmax": "536"
        },
        "_"
    ],
    "AntoineVaporPressure": [
        {
            "eqno": "10",
            "A": "21.402",
            "B": "2657.7",
            "C": "-103.45",
            "Tmin": "323.15",
            "Tmax": "476.56"
        },
        "Pa"
    ],
    "LiquidViscosityRPS": [
        {
            "eqno": "13",
            "A": "18.793",
            "B": "-0.12678",
            "C": "0.00014902",
            "Tmin": "288.15",
            "Tmax": "373.15"
        },
        "Pa.s"
    ],
    "COSTALDVolume": [
        "0.28029",
        "m3/kmol"
    ],
    "DiameterLJ": [
        "6.297213E-10",
        "m"
    ],
    "EnergyLJ": [
        "244.9968",
        "K"
    ],
    "RacketParameter": [
        "0.2538",
        "_"
    ],
    "FullerVolume": [
        "92.81",
        "_"
    ],
    "Parachor": [
        "0.0476",
        "kg0.25.m3/s0.5/kmol"
    ],
    "SpecificGravity": [
        "0.813869",
        "_"
    ],
    "Charge": [
        "0",
        "_"
    ],
    "CostaldAcentricFactor": [
        "0.5792",
        "_"
    ],
    "WilsonVolume": [
        "0.09235",
        "m3/kmol"
    ],
    "ChaoSeaderAcentricFactor": [
        "0.571133",
        "_"
    ],
    "ChaoSeaderSolubilityParameter": [
        "22629.5",
        "J0.5/m1.5"
    ],
    "ChaoSeaderLiquidVolume": [
        "0.0921178",
        "m3/kmol"
    ],
    "RadiusOfGyration": [
        "3.203E-10",
        "m"
    ],
    "VanDerWaalsVolume": [
        "0.05239",
        "m3/kmol"
    ],
    "VanDerWaalsArea": [
        "7.62E+08",
        "m2/kmol"
    ],
    "MatthiasCopemanC1": [
        "1.2365",
        "_"
    ],
    "SolidDensity": [
        {
            "eqno": "2",
            "A": "15.976",
            "B": "-0.011447",
            "Tmin": "63.38",
            "Tmax": "158.45"
        },
        "kmol/m3"
    ],
    "SurfaceTension": [
        {
            "eqno": "16",
            "A": "-0.013468",
            "B": "-124.81",
            "C": "-1.739",
            "D": "-0.0040653",
            "E": "6.6383E-07",
            "Tmin": "273.15",
            "Tmax": "372.7"
        },
        "N/m"
    ],
    "MatthiasCopemanC2": [
        "0.21667",
        "_"
    ],
    "UniquacR": [
        "3.4535",
        "_"
    ],
    "UniquacQ": [
        "3.048",
        "_"
    ],
    "ApiSrkS2": [
        "0.600508",
        "_"
    ],
    "MatthiasCopemanC3": [
        "1.94166",
        "_"
    ],
    "SolidHeatCapacityCp": [
        {
            "eqno": "100",
            "A": "-10538",
            "B": "1245.7",
            "C": "-7.8474",
            "D": "0.033221",
            "E": "-0.000052097",
            "Tmin": "15",
            "Tmax": "184.73"
        },
        "J/kmol/K"
    ],
    "UniquacQP": [
        "0.88",
        "_"
    ],
    "ApiSrkS1": [
        "0.601957",
        "_"
    ]
}