{
    "CAS": "79-20-9",
    "LibraryIndex": "1312",
    "CompoundID": "Methyl acetate",
    "StructureFormula": "CH3COOCH3",
    "Family": "56",
    "CriticalTemperature": [
        "506.8",
        "K"
    ],
    "CriticalPressure": [
        "4690000",
        "Pa"
    ],
    "CriticalVolume": [
        "0.228",
        "m3/kmol"
    ],
    "CriticalCompressibility": [
        "0.254",
        "_"
    ],
    "NormalBoilingPointTemperature": [
        "330.09",
        "K"
    ],
    "NormalMeltingPointTemperature": [
        "175.15",
        "K"
    ],
    "TriplePointTemperature": [
        "175.15",
        "K"
    ],
    "TriplePointPressure": [
        "1.01703",
        "Pa"
    ],
    "MolecularWeight": [
        "74.079",
        "kg/kmol"
    ],
    "LiquidVolumeAtNormalBoilingPoint": [
        "0.07989",
        "m3/kmol"
    ],
    "AcentricityFactor": [
        "0.323",
        "_"
    ],
    "SolubilityParameter": [
        "19350",
        "J0.5/m1.5"
    ],
    "DipoleMoment": [
        "5.6E-30",
        "Coulomb.m"
    ],
    "HeatOfFormation": [
        "-4.119E+08",
        "J/kmol"
    ],
    "GibbsEnergyOfFormation": [
        "-3.242E+08",
        "J/kmol"
    ],
    "AbsEntropy": [
        "319800",
        "J/kmol/K"
    ],
    "HeatOfFusionAtMeltingPoint": [
        "7970000",
        "J/kmol"
    ],
    "HeatOfCombustion": [
        "-1.461E+09",
        "J/kmol"
    ],
    "LiquidDensity": [
        {
            "eqno": "105",
            "A": "0.98331",
            "B": "0.2428",
            "C": "506.86",
            "D": "0.2549",
            "Tmin": "175.15",
            "Tmax": "506.85"
        },
        "kmol/m3"
    ],
    "VaporPressure": [
        {
            "eqno": "101",
            "A": "83.01817",
            "B": "-6288.581",
            "C": "-9.185862",
            "D": "7.595367E-06",
            "E": "2",
            "Tmin": "175.15",
            "Tmax": "506.85"
        },
        "Pa"
    ],
    "HeatOfVaporization": [
        {
            "eqno": "106",
            "A": "4.9929E+07",
            "B": "0.79197",
            "C": "-0.73136",
            "D": "0.37429",
            "E": "-0.019974",
            "Tmin": "175.15",
            "Tmax": "506.85"
        },
        "J/kmol"
    ],
    "LiquidHeatCapacityCp": [
        {
            "eqno": "16",
            "A": "6314.4",
            "B": "680.3",
            "C": "4.1767",
            "D": "0.026148",
            "E": "-0.000027341",
            "Tmin": "207.38",
            "Tmax": "373.4"
        },
        "J/kmol/K"
    ],
    "IdealGasHeatCapacityCp": [
        {
            "eqno": "16",
            "A": "62235",
            "B": "-685.05",
            "C": "12.348",
            "D": "0.00012363",
            "E": "-8.5641E-08",
            "Tmin": "220",
            "Tmax": "1500"
        },
        "J/kmol/K"
    ],
    "SecondVirialCoefficient": [
        {
            "eqno": "104",
            "A": "0.12428",
            "B": "-150.24",
            "C": "-26.001",
            "D": "-830.67",
            "E": "-2742.3",
            "Tmin": "253.4",
            "Tmax": "1773.8"
        },
        "m3/kmol"
    ],
    "LiquidViscosity": [
        {
            "eqno": "101",
            "A": "11.12",
            "B": "-100.13",
            "C": "-3.2745",
            "D": "-5.3051E-07",
            "E": "2",
            "Tmin": "250",
            "Tmax": "425"
        },
        "Pa.s"
    ],
    "VaporViscosity": [
        {
            "eqno": "102",
            "A": "0.0000013226",
            "B": "0.48849",
            "C": "504.21",
            "D": "4.2341",
            "Tmin": "250",
            "Tmax": "800"
        },
        "Pa.s"
    ],
    "LiquidThermalConductivity": [
        {
            "eqno": "16",
            "A": "-0.28416",
            "B": "27.186",
            "C": "-0.94457",
            "D": "0.00083974",
            "E": "-0.0000024412",
            "Tmin": "175.15",
            "Tmax": "386.15"
        },
        "W/m/K"
    ],
    "VaporThermalConductivity": [
        {
            "eqno": "102",
            "A": "-23257",
            "B": "-0.1738",
            "C": "1.0287E+07",
            "D": "-6.9243E+10",
            "Tmin": "276.95",
            "Tmax": "1000"
        },
        "W/m/K"
    ],
    "RPPHeatCapacityCp": [
        {
            "eqno": "100",
            "A": "35270",
            "B": "119.63",
            "C": "0.27754",
            "D": "-0.0004099",
            "E": "1.6055E-07",
            "Tmin": "220",
            "Tmax": "1000"
        },
        "J/kmol/K"
    ],
    "RelativeStaticPermittivity": [
        {
            "eqno": "120",
            "A": "-5.348193",
            "B": "-3350",
            "C": "-20.1",
            "Tmin": "279.15",
            "Tmax": "449.15"
        },
        "_"
    ],
    "AntoineVaporPressure": [
        {
            "eqno": "10",
            "A": "21.435",
            "B": "2829.7",
            "C": "-44.587",
            "Tmin": "305.73",
            "Tmax": "454.22"
        },
        "Pa"
    ],
    "LiquidViscosityRPS": [
        {
            "eqno": "13",
            "A": "-3.8922",
            "B": "-0.016855",
            "C": "0.000011239",
            "Tmin": "250",
            "Tmax": "425"
        },
        "Pa.s"
    ],
    "COSTALDVolume": [
        "0.22619",
        "m3/kmol"
    ],
    "DiameterLJ": [
        "5.04E-10",
        "m"
    ],
    "EnergyLJ": [
        "418",
        "K"
    ],
    "RacketParameter": [
        "0.2785",
        "_"
    ],
    "FullerVolume": [
        "73.78",
        "_"
    ],
    "Parachor": [
        "0.0318",
        "kg0.25.m3/s0.5/kmol"
    ],
    "SpecificGravity": [
        "0.939333",
        "_"
    ],
    "Charge": [
        "0",
        "_"
    ],
    "CostaldAcentricFactor": [
        "0.32049",
        "_"
    ],
    "WilsonVolume": [
        "0.0798903",
        "m3/kmol"
    ],
    "ChaoSeaderAcentricFactor": [
        "0.326",
        "_"
    ],
    "ChaoSeaderSolubilityParameter": [
        "19435.1",
        "J0.5/m1.5"
    ],
    "ChaoSeaderLiquidVolume": [
        "0.0798903",
        "m3/kmol"
    ],
    "RadiusOfGyration": [
        "2.996E-10",
        "m"
    ],
    "VanDerWaalsVolume": [
        "0.04254",
        "m3/kmol"
    ],
    "VanDerWaalsArea": [
        "6.44E+08",
        "m2/kmol"
    ],
    "MatthiasCopemanC1": [
        "0.96569",
        "_"
    ],
    "SolidDensity": [
        {
            "eqno": "2",
            "A": "18.35",
            "B": "-0.011504",
            "Tmin": "70.06",
            "Tmax": "175.15"
        },
        "kmol/m3"
    ],
    "SurfaceTension": [
        {
            "eqno": "16",
            "A": "-0.053249",
            "B": "2.5722",
            "C": "-2.2027",
            "D": "-0.00085349",
            "E": "-0.0000011835",
            "Tmin": "175.15",
            "Tmax": "506.55"
        },
        "N/m"
    ],
    "MatthiasCopemanC2": [
        "0",
        "_"
    ],
    "UniquacR": [
        "2.8",
        "_"
    ],
    "UniquacQ": [
        "2.58",
        "_"
    ],
    "ApiSrkS2": [
        "-0.006163",
        "_"
    ],
    "MatthiasCopemanC3": [
        "0",
        "_"
    ],
    "SolidHeatCapacityCp": [
        {
            "eqno": "1",
            "A": "104870",
            "Tmin": "298",
            "Tmax": "0"
        },
        "J/kmol/K"
    ],
    "UniquacQP": [
        "2.336",
        "_"
    ],
    "ApiSrkS1": [
        "0.763226",
        "_"
    ]
}