{
    "CAS": "80-15-9",
    "LibraryIndex": "1472",
    "CompoundID": "Cumene hydroperoxide",
    "StructureFormula": "(C6H5)C(CH3)2OOH",
    "Family": "64",
    "CriticalTemperature": [
        "605",
        "K"
    ],
    "CriticalPressure": [
        "3340000",
        "Pa"
    ],
    "CriticalVolume": [
        "0.463",
        "m3/kmol"
    ],
    "CriticalCompressibility": [
        "0.278",
        "_"
    ],
    "NormalBoilingPointTemperature": [
        "442.7",
        "K"
    ],
    "NormalMeltingPointTemperature": [
        "264.26",
        "K"
    ],
    "TriplePointTemperature": [
        "264.26",
        "K"
    ],
    "TriplePointPressure": [
        "0.00236574",
        "Pa"
    ],
    "MolecularWeight": [
        "152.19",
        "kg/kmol"
    ],
    "LiquidVolumeAtNormalBoilingPoint": [
        "0.145892",
        "m3/kmol"
    ],
    "AcentricityFactor": [
        "0.995",
        "_"
    ],
    "SolubilityParameter": [
        "21500",
        "J0.5/m1.5"
    ],
    "DipoleMoment": [
        "5.95412E-30",
        "Coulomb.m"
    ],
    "HeatOfFormation": [
        "-7.84E+07",
        "J/kmol"
    ],
    "GibbsEnergyOfFormation": [
        "9.6E+07",
        "J/kmol"
    ],
    "AbsEntropy": [
        "455000",
        "J/kmol/K"
    ],
    "HeatOfFusionAtMeltingPoint": [
        "0",
        "J/kmol"
    ],
    "HeatOfCombustion": [
        "-4.8444E+09",
        "J/kmol"
    ],
    "LiquidDensity": [
        {
            "eqno": "105",
            "A": "0.6643",
            "B": "0.27801",
            "C": "605",
            "D": "0.28637",
            "Tmin": "264.26",
            "Tmax": "605"
        },
        "kmol/m3"
    ],
    "VaporPressure": [
        {
            "eqno": "101",
            "A": "156.523",
            "B": "-16668.56",
            "C": "-17.98221",
            "D": "0.0000113017",
            "E": "2",
            "Tmin": "264.26",
            "Tmax": "494.28"
        },
        "Pa"
    ],
    "HeatOfVaporization": [
        {
            "eqno": "106",
            "A": "7.2836E+07",
            "B": "0.18056",
            "C": "-0.22381",
            "D": "-0.21673",
            "E": "0.35898",
            "Tmin": "298.15",
            "Tmax": "307.65"
        },
        "J/kmol"
    ],
    "LiquidHeatCapacityCp": [
        {
            "eqno": "16",
            "A": "83403",
            "B": "-35.074",
            "C": "9.3262",
            "D": "0.010979",
            "E": "-0.00001071",
            "Tmin": "264.26",
            "Tmax": "442.7"
        },
        "J/kmol/K"
    ],
    "IdealGasHeatCapacityCp": [
        {
            "eqno": "16",
            "A": "70090",
            "B": "-408.89",
            "C": "12.927",
            "D": "0.00036839",
            "E": "-1.5886E-07",
            "Tmin": "273",
            "Tmax": "1200"
        },
        "J/kmol/K"
    ],
    "SecondVirialCoefficient": [
        {
            "eqno": "104",
            "A": "0.068785",
            "B": "-9.8409",
            "C": "-37.616",
            "D": "14983",
            "E": "-36794",
            "Tmin": "241.12",
            "Tmax": "1543.13"
        },
        "m3/kmol"
    ],
    "LiquidViscosity": [
        {
            "eqno": "101",
            "A": "20.905",
            "B": "283.5",
            "C": "-5.5156",
            "D": "0.000016261",
            "E": "2",
            "Tmin": "200",
            "Tmax": "313.15"
        },
        "Pa.s"
    ],
    "VaporViscosity": [
        {
            "eqno": "102",
            "A": "1.9678E-07",
            "B": "0.71936",
            "C": "203.36",
            "D": "-7639",
            "Tmin": "264.26",
            "Tmax": "1000"
        },
        "Pa.s"
    ],
    "LiquidThermalConductivity": [
        {
            "eqno": "16",
            "A": "-0.022189",
            "B": "-77.144",
            "C": "-1.2225",
            "D": "-0.0023354",
            "E": "4.0588E-08",
            "Tmin": "264.26",
            "Tmax": "442.7"
        },
        "W/m/K"
    ],
    "VaporThermalConductivity": [
        {
            "eqno": "102",
            "A": "0.00018194",
            "B": "0.94296",
            "C": "592.69",
            "D": "22533",
            "Tmin": "442.7",
            "Tmax": "1000"
        },
        "W/m/K"
    ],
    "RPPHeatCapacityCp": [
        {
            "eqno": "4",
            "A": "-20463",
            "B": "844.33",
            "C": "-0.56023",
            "D": "0.00014275",
            "Tmin": "273",
            "Tmax": "1200"
        },
        "J/kmol/K"
    ],
    "RelativeStaticPermittivity": [
        {
            "eqno": "120",
            "A": "-4.509298",
            "B": "-10000",
            "C": "-153",
            "Tmin": "314.15",
            "Tmax": "484.15"
        },
        "_"
    ],
    "AntoineVaporPressure": [
        {
            "eqno": "10",
            "A": "33.2",
            "B": "8625.8",
            "C": "-44.733",
            "Tmin": "367.57",
            "Tmax": "494.28"
        },
        "Pa"
    ],
    "LiquidViscosityRPS": [
        {
            "eqno": "12",
            "A": "-2.8854",
            "B": "-0.017723",
            "Tmin": "200",
            "Tmax": "313.15"
        },
        "Pa.s"
    ],
    "COSTALDVolume": [
        "0.484118",
        "m3/kmol"
    ],
    "DiameterLJ": [
        "6.707874E-10",
        "m"
    ],
    "EnergyLJ": [
        "393.7584",
        "K"
    ],
    "RacketParameter": [
        "0.278",
        "_"
    ],
    "FullerVolume": [
        "67.67",
        "_"
    ],
    "Parachor": [
        "0.0577525",
        "kg0.25.m3/s0.5/kmol"
    ],
    "SpecificGravity": [
        "1.053372",
        "_"
    ],
    "Charge": [
        "0",
        "_"
    ],
    "CostaldAcentricFactor": [
        "0.995",
        "_"
    ],
    "WilsonVolume": [
        "0.145892",
        "m3/kmol"
    ],
    "ChaoSeaderAcentricFactor": [
        "0.995",
        "_"
    ],
    "ChaoSeaderSolubilityParameter": [
        "21500",
        "J0.5/m1.5"
    ],
    "ChaoSeaderLiquidVolume": [
        "0.145892",
        "m3/kmol"
    ],
    "RadiusOfGyration": [
        "4.532E-10",
        "m"
    ],
    "VanDerWaalsVolume": [
        "0.08825",
        "m3/kmol"
    ],
    "VanDerWaalsArea": [
        "1.162E+09",
        "m2/kmol"
    ],
    "MatthiasCopemanC1": [
        "0.95094",
        "_"
    ],
    "SolidDensity": [
        {
            "eqno": "2",
            "A": "8.9801",
            "B": "-0.0037758",
            "C": "0",
            "D": "0",
            "E": "0",
            "Tmin": "105.7",
            "Tmax": "264.26"
        },
        "kmol/m3"
    ],
    "SurfaceTension": [
        {
            "eqno": "16",
            "A": "-0.045171",
            "B": "4.6642",
            "C": "-2.3249",
            "D": "-0.0010841",
            "E": "-3.4989E-07",
            "Tmin": "264.26",
            "Tmax": "442.7"
        },
        "N/m"
    ],
    "MatthiasCopemanC2": [
        "-1.02",
        "_"
    ],
    "UniquacR": [
        "5.817402",
        "_"
    ],
    "UniquacQ": [
        "4.648",
        "_"
    ],
    "ApiSrkS2": [
        "0.141244",
        "_"
    ],
    "MatthiasCopemanC3": [
        "3.24763",
        "_"
    ],
    "SolidHeatCapacityCp": [
        {
            "eqno": "100",
            "A": "7404",
            "B": "942.63",
            "C": "-1.8511",
            "D": "0.0047682",
            "E": "-0.0000054326",
            "Tmin": "50",
            "Tmax": "264.26"
        },
        "J/kmol/K"
    ],
    "UniquacQP": [
        "4.936",
        "_"
    ],
    "ApiSrkS1": [
        "0.529899",
        "_"
    ]
}