{
    "CAS": "95-48-7",
    "LibraryIndex": "1182",
    "CompoundID": "O-cresol",
    "StructureFormula": "CH3(C6H4)OH",
    "Family": "48",
    "CriticalTemperature": [
        "697.6",
        "K"
    ],
    "CriticalPressure": [
        "5000000",
        "Pa"
    ],
    "CriticalVolume": [
        "0.282",
        "m3/kmol"
    ],
    "CriticalCompressibility": [
        "0.243",
        "_"
    ],
    "NormalBoilingPointTemperature": [
        "464.17",
        "K"
    ],
    "NormalMeltingPointTemperature": [
        "304.19",
        "K"
    ],
    "TriplePointTemperature": [
        "304.19",
        "K"
    ],
    "TriplePointPressure": [
        "65.3261",
        "Pa"
    ],
    "MolecularWeight": [
        "108.14",
        "kg/kmol"
    ],
    "LiquidVolumeAtNormalBoilingPoint": [
        "0.10364",
        "m3/kmol"
    ],
    "AcentricityFactor": [
        "0.435",
        "_"
    ],
    "SolubilityParameter": [
        "22870",
        "J0.5/m1.5"
    ],
    "DipoleMoment": [
        "4.84E-30",
        "Coulomb.m"
    ],
    "HeatOfFormation": [
        "-1.2857E+08",
        "J/kmol"
    ],
    "GibbsEnergyOfFormation": [
        "-3.543E+07",
        "J/kmol"
    ],
    "AbsEntropy": [
        "352590",
        "J/kmol/K"
    ],
    "HeatOfFusionAtMeltingPoint": [
        "1.582E+07",
        "J/kmol"
    ],
    "HeatOfCombustion": [
        "-3.528E+09",
        "J/kmol"
    ],
    "LiquidDensity": [
        {
            "eqno": "105",
            "A": "1.1115",
            "B": "0.30952",
            "C": "697.6",
            "D": "0.31161",
            "Tmin": "273.15",
            "Tmax": "676.85"
        },
        "kmol/m3"
    ],
    "VaporPressure": [
        {
            "eqno": "101",
            "A": "140.51",
            "B": "-11819",
            "C": "-17.163",
            "D": "0.0000087043",
            "E": "2",
            "Tmin": "303.15",
            "Tmax": "697.65"
        },
        "Pa"
    ],
    "HeatOfVaporization": [
        {
            "eqno": "106",
            "A": "9.9721E+07",
            "B": "1.0333",
            "C": "0.08043",
            "D": "-1.2193",
            "E": "0.58124",
            "Tmin": "304.19",
            "Tmax": "697.65"
        },
        "J/kmol"
    ],
    "LiquidHeatCapacityCp": [
        {
            "eqno": "16",
            "A": "146600",
            "B": "-116.23",
            "C": "11.009",
            "D": "0.0034596",
            "E": "-0.0000033446",
            "Tmin": "304.19",
            "Tmax": "400"
        },
        "J/kmol/K"
    ],
    "IdealGasHeatCapacityCp": [
        {
            "eqno": "16",
            "A": "64367",
            "B": "-535.92",
            "C": "12.871",
            "D": "-0.000033383",
            "E": "-2.2759E-09",
            "Tmin": "150",
            "Tmax": "1500"
        },
        "J/kmol/K"
    ],
    "SecondVirialCoefficient": [
        {
            "eqno": "104",
            "A": "0.19264",
            "B": "-372.93",
            "C": "-69.055",
            "D": "-19860",
            "E": "28563",
            "Tmin": "313.15",
            "Tmax": "1500"
        },
        "m3/kmol"
    ],
    "LiquidViscosity": [
        {
            "eqno": "101",
            "A": "-455.0775",
            "B": "20670.83",
            "C": "67.87773",
            "D": "-0.0000660983",
            "E": "2",
            "Tmin": "293.15",
            "Tmax": "558.04"
        },
        "Pa.s"
    ],
    "VaporViscosity": [
        {
            "eqno": "102",
            "A": "8.7371E-08",
            "B": "0.80775",
            "C": "98.538",
            "D": "-0.0034513",
            "Tmin": "304.19",
            "Tmax": "1000"
        },
        "Pa.s"
    ],
    "LiquidThermalConductivity": [
        {
            "eqno": "16",
            "A": "0.065471",
            "B": "92.351",
            "C": "-2.8415",
            "D": "0.0012245",
            "E": "-0.0000029956",
            "Tmin": "293.15",
            "Tmax": "464.15"
        },
        "W/m/K"
    ],
    "VaporThermalConductivity": [
        {
            "eqno": "102",
            "A": "0.00018648",
            "B": "0.9302",
            "C": "709.37",
            "D": "-0.0036596",
            "Tmin": "464.15",
            "Tmax": "1000"
        },
        "W/m/K"
    ],
    "RPPHeatCapacityCp": [
        {
            "eqno": "100",
            "A": "23912",
            "B": "217.36",
            "C": "0.71039",
            "D": "-0.0011838",
            "E": "5.1458E-07",
            "Tmin": "50",
            "Tmax": "1000"
        },
        "J/kmol/K"
    ],
    "RelativeStaticPermittivity": [
        {
            "eqno": "120",
            "A": "-10.30921",
            "B": "-5750",
            "C": "-34.5",
            "Tmin": "279.15",
            "Tmax": "449.15"
        },
        "_"
    ],
    "AntoineVaporPressure": [
        {
            "eqno": "10",
            "A": "21.629",
            "B": "3891.6",
            "C": "-79.086",
            "Tmin": "419.41",
            "Tmax": "625"
        },
        "Pa"
    ],
    "LiquidViscosityRPS": [
        {
            "eqno": "13",
            "A": "8.2341",
            "B": "-0.06124",
            "C": "0.000056109",
            "Tmin": "293.15",
            "Tmax": "558.04"
        },
        "Pa.s"
    ],
    "COSTALDVolume": [
        "0.33928",
        "m3/kmol"
    ],
    "DiameterLJ": [
        "6.682421E-10",
        "m"
    ],
    "EnergyLJ": [
        "279.7063",
        "K"
    ],
    "RacketParameter": [
        "0.241",
        "_"
    ],
    "FullerVolume": [
        "117.59",
        "_"
    ],
    "Parachor": [
        "0.0458",
        "kg0.25.m3/s0.5/kmol"
    ],
    "SpecificGravity": [
        "1.03606",
        "_"
    ],
    "Charge": [
        "0",
        "_"
    ],
    "CostaldAcentricFactor": [
        "0.43299",
        "_"
    ],
    "WilsonVolume": [
        "0.104368",
        "m3/kmol"
    ],
    "ChaoSeaderAcentricFactor": [
        "0.433455",
        "_"
    ],
    "ChaoSeaderSolubilityParameter": [
        "23397.9",
        "J0.5/m1.5"
    ],
    "ChaoSeaderLiquidVolume": [
        "0.104368",
        "m3/kmol"
    ],
    "RadiusOfGyration": [
        "3.787E-10",
        "m"
    ],
    "VanDerWaalsVolume": [
        "0.06503",
        "m3/kmol"
    ],
    "VanDerWaalsArea": [
        "8.18E+08",
        "m2/kmol"
    ],
    "MatthiasCopemanC1": [
        "1.2881",
        "_"
    ],
    "SolidDensity": [
        {
            "eqno": "2",
            "A": "4.5708",
            "B": "0.019375",
            "Tmin": "293.15",
            "Tmax": "307.65"
        },
        "kmol/m3"
    ],
    "SurfaceTension": [
        {
            "eqno": "16",
            "A": "-0.0094371",
            "B": "291.18",
            "C": "-4.9944",
            "D": "0.0057186",
            "E": "-0.0000083653",
            "Tmin": "283.15",
            "Tmax": "697.55"
        },
        "N/m"
    ],
    "MatthiasCopemanC2": [
        "-1.4627",
        "_"
    ],
    "UniquacR": [
        "4.7567",
        "_"
    ],
    "UniquacQ": [
        "3.888",
        "_"
    ],
    "ApiSrkS2": [
        "-0.005125",
        "_"
    ],
    "MatthiasCopemanC3": [
        "3.2512",
        "_"
    ],
    "SolidHeatCapacityCp": [
        {
            "eqno": "100",
            "A": "-8031.4",
            "B": "1109.1",
            "C": "-6.0897",
            "D": "0.022423",
            "E": "-0.000027975",
            "Tmin": "10",
            "Tmax": "304.19"
        },
        "J/kmol/K"
    ],
    "UniquacQP": [
        "2.968",
        "_"
    ],
    "ApiSrkS1": [
        "0.745244",
        "_"
    ]
}