{
    "CAS": "96-22-0",
    "LibraryIndex": "1053",
    "CompoundID": "3-pentanone",
    "StructureFormula": "CH3CH2COCH2CH3",
    "Family": "26",
    "CriticalTemperature": [
        "561.5",
        "K"
    ],
    "CriticalPressure": [
        "3730000",
        "Pa"
    ],
    "CriticalVolume": [
        "0.336",
        "m3/kmol"
    ],
    "CriticalCompressibility": [
        "0.268",
        "_"
    ],
    "NormalBoilingPointTemperature": [
        "375.14",
        "K"
    ],
    "NormalMeltingPointTemperature": [
        "234.18",
        "K"
    ],
    "TriplePointTemperature": [
        "234.18",
        "K"
    ],
    "TriplePointPressure": [
        "73.4224",
        "Pa"
    ],
    "MolecularWeight": [
        "86.134",
        "kg/kmol"
    ],
    "LiquidVolumeAtNormalBoilingPoint": [
        "0.10641",
        "m3/kmol"
    ],
    "AcentricityFactor": [
        "0.342",
        "_"
    ],
    "SolubilityParameter": [
        "18410",
        "J0.5/m1.5"
    ],
    "DipoleMoment": [
        "9.41E-30",
        "Coulomb.m"
    ],
    "HeatOfFormation": [
        "-2.579E+08",
        "J/kmol"
    ],
    "GibbsEnergyOfFormation": [
        "-1.344E+08",
        "J/kmol"
    ],
    "AbsEntropy": [
        "370000",
        "J/kmol/K"
    ],
    "HeatOfFusionAtMeltingPoint": [
        "1.159E+07",
        "J/kmol"
    ],
    "HeatOfCombustion": [
        "-2.8804E+09",
        "J/kmol"
    ],
    "LiquidDensity": [
        {
            "eqno": "105",
            "A": "0.68664",
            "B": "0.23603",
            "C": "561.5",
            "D": "0.27471",
            "Tmin": "234.18",
            "Tmax": "543.75"
        },
        "kmol/m3"
    ],
    "VaporPressure": [
        {
            "eqno": "101",
            "A": "58.885",
            "B": "-6044.5",
            "C": "-5.3259",
            "D": "0.0000023057",
            "E": "2",
            "Tmin": "234.18",
            "Tmax": "560.95"
        },
        "Pa"
    ],
    "HeatOfVaporization": [
        {
            "eqno": "106",
            "A": "5.083729E+07",
            "B": "0.764461",
            "C": "-0.828447",
            "D": "-0.00277131",
            "E": "0.530942",
            "Tmin": "234.18",
            "Tmax": "560.95"
        },
        "J/kmol"
    ],
    "LiquidHeatCapacityCp": [
        {
            "eqno": "16",
            "A": "169130",
            "B": "405.25",
            "C": "3.0239",
            "D": "0.024087",
            "E": "-0.000018434",
            "Tmin": "233.15",
            "Tmax": "393.15"
        },
        "J/kmol/K"
    ],
    "IdealGasHeatCapacityCp": [
        {
            "eqno": "16",
            "A": "93124",
            "B": "-637.87",
            "C": "12.577",
            "D": "0.00022827",
            "E": "-1.0612E-07",
            "Tmin": "200",
            "Tmax": "1500"
        },
        "J/kmol/K"
    ],
    "SecondVirialCoefficient": [
        {
            "eqno": "104",
            "A": "0.13293",
            "B": "-126.32",
            "C": "-67.641",
            "D": "17238",
            "E": "-66712",
            "Tmin": "280.45",
            "Tmax": "1500"
        },
        "m3/kmol"
    ],
    "LiquidViscosity": [
        {
            "eqno": "101",
            "A": "-1.367",
            "B": "550.49",
            "C": "-1.4469",
            "D": "4.9148E-07",
            "E": "2",
            "Tmin": "234.18",
            "Tmax": "375.14"
        },
        "Pa.s"
    ],
    "VaporViscosity": [
        {
            "eqno": "102",
            "A": "0.0000002611",
            "B": "0.65778",
            "C": "216.39",
            "D": "-3537.8",
            "Tmin": "234.18",
            "Tmax": "1000"
        },
        "Pa.s"
    ],
    "LiquidThermalConductivity": [
        {
            "eqno": "16",
            "A": "0.0080662",
            "B": "16.294",
            "C": "-1.6509",
            "D": "-0.0010676",
            "E": "-9.5001E-07",
            "Tmin": "187.86",
            "Tmax": "375.14"
        },
        "W/m/K"
    ],
    "VaporThermalConductivity": [
        {
            "eqno": "102",
            "A": "22.162",
            "B": "1.0028",
            "C": "1.8597E+08",
            "D": "9.2842E+08",
            "Tmin": "273",
            "Tmax": "1000"
        },
        "W/m/K"
    ],
    "RPPHeatCapacityCp": [
        {
            "eqno": "100",
            "A": "67106",
            "B": "113.53",
            "C": "0.50885",
            "D": "-0.00069318",
            "E": "2.7047E-07",
            "Tmin": "200",
            "Tmax": "1000"
        },
        "J/kmol/K"
    ],
    "RelativeStaticPermittivity": [
        {
            "eqno": "120",
            "A": "-15.7804",
            "B": "-7700",
            "C": "-46.2",
            "Tmin": "154",
            "Tmax": "444.15"
        },
        "_"
    ],
    "AntoineVaporPressure": [
        {
            "eqno": "10",
            "A": "21.615",
            "B": "3357.7",
            "C": "-42.268",
            "Tmin": "337.37",
            "Tmax": "492.16"
        },
        "Pa"
    ],
    "LiquidViscosityRPS": [
        {
            "eqno": "13",
            "A": "-1.9137",
            "B": "-0.027945",
            "C": "0.000028415",
            "Tmin": "234.18",
            "Tmax": "375.14"
        },
        "Pa.s"
    ],
    "COSTALDVolume": [
        "0.3188",
        "m3/kmol"
    ],
    "DiameterLJ": [
        "6.298875E-10",
        "m"
    ],
    "EnergyLJ": [
        "320.2936",
        "K"
    ],
    "RacketParameter": [
        "0.268765",
        "_"
    ],
    "FullerVolume": [
        "108.71",
        "_"
    ],
    "Parachor": [
        "0.0426",
        "kg0.25.m3/s0.5/kmol"
    ],
    "SpecificGravity": [
        "0.806",
        "_"
    ],
    "Charge": [
        "0",
        "_"
    ],
    "CostaldAcentricFactor": [
        "0.34599",
        "_"
    ],
    "WilsonVolume": [
        "0.106401",
        "m3/kmol"
    ],
    "ChaoSeaderAcentricFactor": [
        "0.344",
        "_"
    ],
    "ChaoSeaderSolubilityParameter": [
        "18259.5",
        "J0.5/m1.5"
    ],
    "ChaoSeaderLiquidVolume": [
        "0.106401",
        "m3/kmol"
    ],
    "RadiusOfGyration": [
        "3.583E-10",
        "m"
    ],
    "VanDerWaalsVolume": [
        "0.0595",
        "m3/kmol"
    ],
    "VanDerWaalsArea": [
        "8.54E+08",
        "m2/kmol"
    ],
    "MatthiasCopemanC1": [
        "1.069",
        "_"
    ],
    "SolidDensity": [
        {
            "eqno": "2",
            "A": "12.822",
            "B": "-0.0061115",
            "Tmin": "93.67",
            "Tmax": "234.18"
        },
        "kmol/m3"
    ],
    "SurfaceTension": [
        {
            "eqno": "16",
            "A": "-0.0083353",
            "B": "223.31",
            "C": "-5.0336",
            "D": "0.0065645",
            "E": "-0.000012203",
            "Tmin": "234.18",
            "Tmax": "560.95"
        },
        "N/m"
    ],
    "MatthiasCopemanC2": [
        "-0.45383",
        "_"
    ],
    "UniquacR": [
        "3.9223",
        "_"
    ],
    "UniquacQ": [
        "3.416",
        "_"
    ],
    "ApiSrkS2": [
        "-0.001574",
        "_"
    ],
    "MatthiasCopemanC3": [
        "0.59305",
        "_"
    ],
    "SolidHeatCapacityCp": [
        {
            "eqno": "100",
            "A": "-6392",
            "B": "777.74",
            "C": "17.353",
            "D": "-0.29853",
            "E": "0.001372",
            "Tmin": "11.16",
            "Tmax": "119.45"
        },
        "J/kmol/K"
    ],
    "UniquacQP": [
        "2.484",
        "_"
    ],
    "ApiSrkS1": [
        "0.745244",
        "_"
    ]
}