{
    "CAS": "98-82-8",
    "LibraryIndex": "510",
    "CompoundID": "Cumene",
    "StructureFormula": "(C6H5)CH(CH3)2",
    "Family": "17",
    "CriticalTemperature": [
        "631",
        "K"
    ],
    "CriticalPressure": [
        "3209000",
        "Pa"
    ],
    "CriticalVolume": [
        "0.4347",
        "m3/kmol"
    ],
    "CriticalCompressibility": [
        "0.261",
        "_"
    ],
    "NormalBoilingPointTemperature": [
        "425.52",
        "K"
    ],
    "NormalMeltingPointTemperature": [
        "177.14",
        "K"
    ],
    "TriplePointTemperature": [
        "177.14",
        "K"
    ],
    "TriplePointPressure": [
        "0.000471313",
        "Pa"
    ],
    "MolecularWeight": [
        "120.194",
        "kg/kmol"
    ],
    "LiquidVolumeAtNormalBoilingPoint": [
        "0.14017",
        "m3/kmol"
    ],
    "AcentricityFactor": [
        "0.326",
        "_"
    ],
    "SolubilityParameter": [
        "17420",
        "J0.5/m1.5"
    ],
    "DipoleMoment": [
        "1.3E-30",
        "Coulomb.m"
    ],
    "HeatOfFormation": [
        "4000000",
        "J/kmol"
    ],
    "GibbsEnergyOfFormation": [
        "1.379E+08",
        "J/kmol"
    ],
    "AbsEntropy": [
        "386000",
        "J/kmol/K"
    ],
    "HeatOfFusionAtMeltingPoint": [
        "7326000",
        "J/kmol"
    ],
    "HeatOfCombustion": [
        "-4.951E+09",
        "J/kmol"
    ],
    "LiquidDensity": [
        {
            "eqno": "105",
            "A": "0.50221",
            "B": "0.23722",
            "C": "631.11",
            "D": "0.26133",
            "Tmin": "153.1",
            "Tmax": "631.1"
        },
        "kmol/m3"
    ],
    "VaporPressure": [
        {
            "eqno": "101",
            "A": "118.1491",
            "B": "-9251.635",
            "C": "-14.30054",
            "D": "9.196883E-06",
            "E": "2",
            "Tmin": "177.14",
            "Tmax": "631.05"
        },
        "Pa"
    ],
    "HeatOfVaporization": [
        {
            "eqno": "106",
            "A": "5.766E+07",
            "B": "0.38939",
            "C": "0",
            "D": "0",
            "E": "0",
            "Tmin": "177.14",
            "Tmax": "631"
        },
        "J/kmol"
    ],
    "LiquidHeatCapacityCp": [
        {
            "eqno": "16",
            "A": "41467",
            "B": "-297.98",
            "C": "13.905",
            "D": "-0.0047724",
            "E": "0.0000064694",
            "Tmin": "177.14",
            "Tmax": "500"
        },
        "J/kmol/K"
    ],
    "IdealGasHeatCapacityCp": [
        {
            "eqno": "16",
            "A": "86134",
            "B": "-649.19",
            "C": "13.375",
            "D": "-0.00027067",
            "E": "7.9617E-08",
            "Tmin": "200",
            "Tmax": "1500"
        },
        "J/kmol/K"
    ],
    "SecondVirialCoefficient": [
        {
            "eqno": "104",
            "A": "0.25813",
            "B": "-351.41",
            "C": "-75.368",
            "D": "-30164",
            "E": "51230",
            "Tmin": "300",
            "Tmax": "1893"
        },
        "m3/kmol"
    ],
    "LiquidViscosity": [
        {
            "eqno": "101",
            "A": "-16.711",
            "B": "1557.8",
            "C": "0.70915",
            "D": "0.000002636",
            "E": "2",
            "Tmin": "200",
            "Tmax": "400"
        },
        "Pa.s"
    ],
    "VaporViscosity": [
        {
            "eqno": "102",
            "A": "3.9385E-07",
            "B": "0.59572",
            "C": "281.33",
            "D": "-806.82",
            "Tmin": "177.14",
            "Tmax": "1000"
        },
        "Pa.s"
    ],
    "LiquidThermalConductivity": [
        {
            "eqno": "16",
            "A": "0.085857",
            "B": "481.58",
            "C": "-8.587",
            "D": "0.025021",
            "E": "-0.000042138",
            "Tmin": "177.14",
            "Tmax": "500"
        },
        "W/m/K"
    ],
    "VaporThermalConductivity": [
        {
            "eqno": "102",
            "A": "1.6743E-07",
            "B": "1.8369",
            "C": "-449.46",
            "D": "112760",
            "Tmin": "380",
            "Tmax": "1000"
        },
        "W/m/K"
    ],
    "RPPHeatCapacityCp": [
        {
            "eqno": "100",
            "A": "24819",
            "B": "284.32",
            "C": "0.99258",
            "D": "-0.0016755",
            "E": "0.0000007419",
            "Tmin": "50",
            "Tmax": "1000"
        },
        "J/kmol/K"
    ],
    "RelativeStaticPermittivity": [
        {
            "eqno": "120",
            "A": "-1.796538",
            "B": "-1200",
            "C": "-7.2",
            "Tmin": "274.15",
            "Tmax": "444.15"
        },
        "_"
    ],
    "AntoineVaporPressure": [
        {
            "eqno": "10",
            "A": "20.498",
            "B": "3116.8",
            "C": "-78.092",
            "Tmin": "380.45",
            "Tmax": "562.1"
        },
        "Pa"
    ],
    "LiquidViscosityRPS": [
        {
            "eqno": "13",
            "A": "2.7243",
            "B": "-0.05195",
            "C": "0.000062446",
            "Tmin": "200",
            "Tmax": "400"
        },
        "Pa.s"
    ],
    "COSTALDVolume": [
        "0.42713",
        "m3/kmol"
    ],
    "DiameterLJ": [
        "7.084995E-10",
        "m"
    ],
    "EnergyLJ": [
        "327.2265",
        "K"
    ],
    "RacketParameter": [
        "0.2617",
        "_"
    ],
    "FullerVolume": [
        "152.52",
        "_"
    ],
    "Parachor": [
        "0.0567",
        "kg0.25.m3/s0.5/kmol"
    ],
    "SpecificGravity": [
        "0.864757",
        "_"
    ],
    "Charge": [
        "0",
        "_"
    ],
    "CostaldAcentricFactor": [
        "0.32769",
        "_"
    ],
    "WilsonVolume": [
        "0.139854",
        "m3/kmol"
    ],
    "ChaoSeaderAcentricFactor": [
        "0.3353",
        "_"
    ],
    "ChaoSeaderSolubilityParameter": [
        "17436.2",
        "J0.5/m1.5"
    ],
    "ChaoSeaderLiquidVolume": [
        "0.139854",
        "m3/kmol"
    ],
    "RadiusOfGyration": [
        "4.322E-10",
        "m"
    ],
    "VanDerWaalsVolume": [
        "0.07996",
        "m3/kmol"
    ],
    "VanDerWaalsArea": [
        "1.014E+09",
        "m2/kmol"
    ],
    "MatthiasCopemanC1": [
        "0.97464",
        "_"
    ],
    "SolidDensity": [
        {
            "eqno": "2",
            "A": "10.07",
            "B": "-0.0062914",
            "Tmin": "70.86",
            "Tmax": "177.14"
        },
        "kmol/m3"
    ],
    "SurfaceTension": [
        {
            "eqno": "16",
            "A": "-0.0080328",
            "B": "47.667",
            "C": "-3.2474",
            "D": "0.00083757",
            "E": "-0.0000055542",
            "Tmin": "177.14",
            "Tmax": "631"
        },
        "N/m"
    ],
    "MatthiasCopemanC2": [
        "0",
        "_"
    ],
    "UniquacR": [
        "5.2708",
        "_"
    ],
    "UniquacQ": [
        "4.044",
        "_"
    ],
    "ApiSrkS2": [
        "-0.008698",
        "_"
    ],
    "MatthiasCopemanC3": [
        "0",
        "_"
    ],
    "SolidHeatCapacityCp": [
        {
            "eqno": "100",
            "A": "-10800",
            "B": "1565.7",
            "C": "-10.507",
            "D": "0.040966",
            "E": "-0.000034539",
            "Tmin": "10",
            "Tmax": "177.16"
        },
        "J/kmol/K"
    ],
    "UniquacQP": [
        "4.936",
        "_"
    ],
    "ApiSrkS1": [
        "0.745244",
        "_"
    ]
}