{
    "CAS": "99-87-6",
    "LibraryIndex": "524",
    "CompoundID": "P-cymene",
    "StructureFormula": "CH3(C6H4)CH(CH3)2",
    "Family": "10",
    "CriticalTemperature": [
        "652",
        "K"
    ],
    "CriticalPressure": [
        "2800000",
        "Pa"
    ],
    "CriticalVolume": [
        "0.497",
        "m3/kmol"
    ],
    "CriticalCompressibility": [
        "0.248",
        "_"
    ],
    "NormalBoilingPointTemperature": [
        "450.26",
        "K"
    ],
    "NormalMeltingPointTemperature": [
        "205.25",
        "K"
    ],
    "TriplePointTemperature": [
        "205.25",
        "K"
    ],
    "TriplePointPressure": [
        "0.010391",
        "Pa"
    ],
    "MolecularWeight": [
        "134.221",
        "kg/kmol"
    ],
    "LiquidVolumeAtNormalBoilingPoint": [
        "0.15749",
        "m3/kmol"
    ],
    "AcentricityFactor": [
        "0.376",
        "_"
    ],
    "SolubilityParameter": [
        "17290",
        "J0.5/m1.5"
    ],
    "DipoleMoment": [
        "0",
        "Coulomb.m"
    ],
    "HeatOfFormation": [
        "-2.799E+07",
        "J/kmol"
    ],
    "GibbsEnergyOfFormation": [
        "1.3352E+08",
        "J/kmol"
    ],
    "AbsEntropy": [
        "426400",
        "J/kmol/K"
    ],
    "HeatOfFusionAtMeltingPoint": [
        "9661000",
        "J/kmol"
    ],
    "HeatOfCombustion": [
        "-5.558E+09",
        "J/kmol"
    ],
    "LiquidDensity": [
        {
            "eqno": "105",
            "A": "0.44838",
            "B": "0.23842",
            "C": "653.16",
            "D": "0.26866",
            "Tmin": "205.25",
            "Tmax": "653.15"
        },
        "kmol/m3"
    ],
    "VaporPressure": [
        {
            "eqno": "101",
            "A": "130.8986",
            "B": "-10357.88",
            "C": "-16.09943",
            "D": "9.850105E-06",
            "E": "2",
            "Tmin": "205.25",
            "Tmax": "653.15"
        },
        "Pa"
    ],
    "HeatOfVaporization": [
        {
            "eqno": "106",
            "A": "8.966039E+07",
            "B": "1.950064",
            "C": "-3.032433",
            "D": "2.16162",
            "E": "-0.588861",
            "Tmin": "205.25",
            "Tmax": "653.15"
        },
        "J/kmol"
    ],
    "LiquidHeatCapacityCp": [
        {
            "eqno": "16",
            "A": "99148",
            "B": "48.442",
            "C": "10.281",
            "D": "0.006034",
            "E": "-0.0000045515",
            "Tmin": "205.25",
            "Tmax": "450.28"
        },
        "J/kmol/K"
    ],
    "IdealGasHeatCapacityCp": [
        {
            "eqno": "16",
            "A": "119360",
            "B": "-822.32",
            "C": "13.841",
            "D": "-0.00060036",
            "E": "1.8085E-07",
            "Tmin": "200",
            "Tmax": "1500"
        },
        "J/kmol/K"
    ],
    "SecondVirialCoefficient": [
        {
            "eqno": "104",
            "A": "0.075714",
            "B": "-202.54",
            "C": "-126.35",
            "D": "-27689",
            "E": "28143",
            "Tmin": "205.25",
            "Tmax": "1500"
        },
        "m3/kmol"
    ],
    "LiquidViscosity": [
        {
            "eqno": "101",
            "A": "-29.824",
            "B": "1974.9",
            "C": "2.8359",
            "D": "-0.0000010565",
            "E": "2",
            "Tmin": "205.25",
            "Tmax": "522.53"
        },
        "Pa.s"
    ],
    "VaporViscosity": [
        {
            "eqno": "102",
            "A": "0.0000032148",
            "B": "0.32014",
            "C": "730.34",
            "D": "10237",
            "Tmin": "205.25",
            "Tmax": "1000"
        },
        "Pa.s"
    ],
    "LiquidThermalConductivity": [
        {
            "eqno": "16",
            "A": "0.018679",
            "B": "-10.656",
            "C": "-1.722",
            "D": "-0.0015047",
            "E": "-7.6885E-07",
            "Tmin": "205.25",
            "Tmax": "593.15"
        },
        "W/m/K"
    ],
    "VaporThermalConductivity": [
        {
            "eqno": "102",
            "A": "0.00010761",
            "B": "1.0275",
            "C": "670.75",
            "D": "67288",
            "Tmin": "450.28",
            "Tmax": "1000"
        },
        "W/m/K"
    ],
    "RPPHeatCapacityCp": [
        {
            "eqno": "4",
            "A": "-15629",
            "B": "759.85",
            "C": "-0.40811",
            "D": "0.000080721",
            "Tmin": "200",
            "Tmax": "1500"
        },
        "J/kmol/K"
    ],
    "RelativeStaticPermittivity": [
        {
            "eqno": "120",
            "A": "-1.756835",
            "B": "-1150",
            "C": "-6.9",
            "Tmin": "271.3722",
            "Tmax": "441.3722"
        },
        "_"
    ],
    "AntoineVaporPressure": [
        {
            "eqno": "10",
            "A": "21.164",
            "B": "3777.4",
            "C": "-58.088",
            "Tmin": "393.15",
            "Tmax": "581.46"
        },
        "Pa"
    ],
    "LiquidViscosityRPS": [
        {
            "eqno": "12",
            "A": "-4.2286",
            "B": "-0.0093756",
            "Tmin": "205.25",
            "Tmax": "522.53"
        },
        "Pa.s"
    ],
    "COSTALDVolume": [
        "0.501549",
        "m3/kmol"
    ],
    "DiameterLJ": [
        "7.876896E-10",
        "m"
    ],
    "EnergyLJ": [
        "281.3111",
        "K"
    ],
    "RacketParameter": [
        "0.248",
        "_"
    ],
    "FullerVolume": [
        "173.04",
        "_"
    ],
    "Parachor": [
        "0.0641258",
        "kg0.25.m3/s0.5/kmol"
    ],
    "SpecificGravity": [
        "0.860761",
        "_"
    ],
    "Charge": [
        "0",
        "_"
    ],
    "CostaldAcentricFactor": [
        "0.376",
        "_"
    ],
    "WilsonVolume": [
        "0.15749",
        "m3/kmol"
    ],
    "ChaoSeaderAcentricFactor": [
        "0.376",
        "_"
    ],
    "ChaoSeaderSolubilityParameter": [
        "17290",
        "J0.5/m1.5"
    ],
    "ChaoSeaderLiquidVolume": [
        "0.15749",
        "m3/kmol"
    ],
    "RadiusOfGyration": [
        "4.557E-10",
        "m"
    ],
    "VanDerWaalsVolume": [
        "0.09111",
        "m3/kmol"
    ],
    "VanDerWaalsArea": [
        "1.153E+09",
        "m2/kmol"
    ],
    "MatthiasCopemanC1": [
        "1.03611",
        "_"
    ],
    "SolidDensity": [
        {
            "eqno": "2",
            "A": "8.7239",
            "B": "-0.004728",
            "C": "0",
            "D": "0",
            "E": "0",
            "Tmin": "82.1",
            "Tmax": "205.25"
        },
        "kmol/m3"
    ],
    "SurfaceTension": [
        {
            "eqno": "16",
            "A": "-0.040455",
            "B": "32.653",
            "C": "-2.5051",
            "D": "-0.00081582",
            "E": "-0.0000005747",
            "Tmin": "205.25",
            "Tmax": "628.49"
        },
        "N/m"
    ],
    "MatthiasCopemanC2": [
        "0",
        "_"
    ],
    "UniquacR": [
        "6.0058",
        "_"
    ],
    "UniquacQ": [
        "4.612",
        "_"
    ],
    "ApiSrkS2": [
        "0.000849",
        "_"
    ],
    "MatthiasCopemanC3": [
        "0",
        "_"
    ],
    "SolidHeatCapacityCp": [
        {
            "eqno": "100",
            "A": "-68366",
            "B": "2952.6",
            "C": "-17.388",
            "D": "0.036561",
            "E": "0.000036293",
            "Tmin": "90",
            "Tmax": "205.25"
        },
        "J/kmol/K"
    ],
    "UniquacQP": [
        "4.936",
        "_"
    ],
    "ApiSrkS1": [
        "0.59245",
        "_"
    ]
}