{
    "CAS": "99-94-5",
    "LibraryIndex": "1283",
    "CompoundID": "P-toluic acid",
    "StructureFormula": "CH3(C6H4)COOH",
    "Family": "53",
    "CriticalTemperature": [
        "773",
        "K"
    ],
    "CriticalPressure": [
        "3860000",
        "Pa"
    ],
    "CriticalVolume": [
        "0.397",
        "m3/kmol"
    ],
    "CriticalCompressibility": [
        "0.238",
        "_"
    ],
    "NormalBoilingPointTemperature": [
        "548.15",
        "K"
    ],
    "NormalMeltingPointTemperature": [
        "452.75",
        "K"
    ],
    "TriplePointTemperature": [
        "452.75",
        "K"
    ],
    "TriplePointPressure": [
        "5208.62",
        "Pa"
    ],
    "MolecularWeight": [
        "136.148",
        "kg/kmol"
    ],
    "LiquidVolumeAtNormalBoilingPoint": [
        "0.129817",
        "m3/kmol"
    ],
    "AcentricityFactor": [
        "0.661017",
        "_"
    ],
    "SolubilityParameter": [
        "22040",
        "J0.5/m1.5"
    ],
    "DipoleMoment": [
        "5.67059E-30",
        "Coulomb.m"
    ],
    "HeatOfFormation": [
        "-3.22796E+08",
        "J/kmol"
    ],
    "GibbsEnergyOfFormation": [
        "-2.13346E+08",
        "J/kmol"
    ],
    "AbsEntropy": [
        "406141",
        "J/kmol/K"
    ],
    "HeatOfFusionAtMeltingPoint": [
        "2.2737E+07",
        "J/kmol"
    ],
    "HeatOfCombustion": [
        "-3.69222E+09",
        "J/kmol"
    ],
    "LiquidDensity": [
        {
            "eqno": "105",
            "A": "0.60059",
            "B": "0.238",
            "C": "773",
            "D": "0.28571",
            "Tmin": "452.75",
            "Tmax": "773"
        },
        "kmol/m3"
    ],
    "VaporPressure": [
        {
            "eqno": "101",
            "A": "180.79",
            "B": "-16901",
            "C": "-22.327",
            "D": "0.0000079041",
            "E": "2",
            "Tmin": "450",
            "Tmax": "773"
        },
        "Pa"
    ],
    "HeatOfVaporization": [
        {
            "eqno": "106",
            "A": "1.0299E+08",
            "B": "0.94653",
            "C": "-1.474",
            "D": "1.5504",
            "E": "-0.62044",
            "Tmin": "452.75",
            "Tmax": "756.15"
        },
        "J/kmol"
    ],
    "LiquidHeatCapacityCp": [
        {
            "eqno": "16",
            "A": "204240",
            "B": "558.58",
            "C": "5.081",
            "D": "0.015699",
            "E": "-0.000010465",
            "Tmin": "452.75",
            "Tmax": "548.15"
        },
        "J/kmol/K"
    ],
    "IdealGasHeatCapacityCp": [
        {
            "eqno": "16",
            "A": "85949",
            "B": "-929.05",
            "C": "14.065",
            "D": "-0.0013145",
            "E": "5.0858E-07",
            "Tmin": "273",
            "Tmax": "1000.15"
        },
        "J/kmol/K"
    ],
    "SecondVirialCoefficient": [
        {
            "eqno": "104",
            "A": "0.37998",
            "B": "-379.85",
            "C": "-418.42",
            "D": "-567110",
            "E": "576970",
            "Tmin": "414",
            "Tmax": "1500"
        },
        "m3/kmol"
    ],
    "LiquidViscosity": [
        {
            "eqno": "101",
            "A": "-16.393",
            "B": "2717.5",
            "C": "0.51437",
            "D": "-3.3608E-07",
            "E": "2",
            "Tmin": "452.75",
            "Tmax": "598"
        },
        "Pa.s"
    ],
    "VaporViscosity": [
        {
            "eqno": "102",
            "A": "8.0828E-08",
            "B": "0.81038",
            "C": "114.97",
            "D": "-489.3",
            "Tmin": "452.75",
            "Tmax": "1000"
        },
        "Pa.s"
    ],
    "LiquidThermalConductivity": [
        {
            "eqno": "16",
            "A": "-0.14095",
            "B": "29.118",
            "C": "-1.2124",
            "D": "0.000049104",
            "E": "-7.6374E-07",
            "Tmin": "231.9",
            "Tmax": "611.9"
        },
        "W/m/K"
    ],
    "VaporThermalConductivity": [
        {
            "eqno": "102",
            "A": "0.00002977",
            "B": "1.1214",
            "C": "206.56",
            "D": "62002",
            "Tmin": "548.15",
            "Tmax": "1000"
        },
        "W/m/K"
    ],
    "RPPHeatCapacityCp": [
        {
            "eqno": "4",
            "A": "-36255",
            "B": "643.38",
            "C": "-0.35936",
            "D": "0.000063647",
            "Tmin": "273",
            "Tmax": "1000.15"
        },
        "J/kmol/K"
    ],
    "RelativeStaticPermittivity": [
        {
            "eqno": "120",
            "A": "-21.91636",
            "B": "-10000",
            "C": "-66",
            "Tmin": "274.7056",
            "Tmax": "444.7056"
        },
        "_"
    ],
    "AntoineVaporPressure": [
        {
            "eqno": "10",
            "A": "22.085",
            "B": "4607.3",
            "C": "-112.28",
            "Tmin": "469.61",
            "Tmax": "688.72"
        },
        "Pa"
    ],
    "LiquidViscosityRPS": [
        {
            "eqno": "12",
            "A": "-3.0746",
            "B": "-0.0094981",
            "Tmin": "452.75",
            "Tmax": "598"
        },
        "Pa.s"
    ],
    "COSTALDVolume": [
        "0.415667",
        "m3/kmol"
    ],
    "DiameterLJ": [
        "7.678613E-10",
        "m"
    ],
    "EnergyLJ": [
        "287.5873",
        "K"
    ],
    "RacketParameter": [
        "0.238",
        "_"
    ],
    "FullerVolume": [
        "139.6",
        "_"
    ],
    "Parachor": [
        "0.0546655",
        "kg0.25.m3/s0.5/kmol"
    ],
    "SpecificGravity": [
        "1.207575",
        "_"
    ],
    "Charge": [
        "0",
        "_"
    ],
    "CostaldAcentricFactor": [
        "0.661017",
        "_"
    ],
    "WilsonVolume": [
        "0.129817",
        "m3/kmol"
    ],
    "ChaoSeaderAcentricFactor": [
        "0.661017",
        "_"
    ],
    "ChaoSeaderSolubilityParameter": [
        "22040",
        "J0.5/m1.5"
    ],
    "ChaoSeaderLiquidVolume": [
        "0.129817",
        "m3/kmol"
    ],
    "RadiusOfGyration": [
        "4.35E-10",
        "m"
    ],
    "VanDerWaalsVolume": [
        "0.07673",
        "m3/kmol"
    ],
    "VanDerWaalsArea": [
        "9.78E+08",
        "m2/kmol"
    ],
    "MatthiasCopemanC1": [
        "1.41302",
        "_"
    ],
    "SolidDensity": [
        {
            "eqno": "2",
            "A": "9.1884",
            "B": "-1.9667E-16",
            "C": "0",
            "D": "0",
            "E": "0",
            "Tmin": "0",
            "Tmax": "9.5"
        },
        "kmol/m3"
    ],
    "SurfaceTension": [
        {
            "eqno": "16",
            "A": "-0.0093429",
            "B": "992.57",
            "C": "-8.4763",
            "D": "0.011892",
            "E": "-0.000011231",
            "Tmin": "452.75",
            "Tmax": "756.15"
        },
        "N/m"
    ],
    "MatthiasCopemanC2": [
        "0",
        "_"
    ],
    "UniquacR": [
        "5.058",
        "_"
    ],
    "UniquacQ": [
        "3.912",
        "_"
    ],
    "ApiSrkS2": [
        "0.141244",
        "_"
    ],
    "MatthiasCopemanC3": [
        "0",
        "_"
    ],
    "SolidHeatCapacityCp": [
        {
            "eqno": "100",
            "A": "29.528",
            "B": "2233.9",
            "C": "-11.072",
            "D": "0.024391",
            "E": "-0.000020147",
            "Tmin": "298",
            "Tmax": "307.5"
        },
        "J/kmol/K"
    ],
    "UniquacQP": [
        "4.936",
        "_"
    ],
    "ApiSrkS1": [
        "0.529899",
        "_"
    ]
}